 Entering Gaussian System, Link 0=/usr/local/Gaussian/g09/g09
 Input=claisen_prd.com
 Output=claisen_prd.log
 Initial command:
 /usr/local/Gaussian/G16C/g16/l1.exe "/home/rpaton/Gau-110413.inp" -scrdir="/home/rpaton/"
 Entering Link 1 = /usr/local/Gaussian/G16C/g16/l1.exe PID=    110414.
  
 Copyright (c) 1988-2019, Gaussian, Inc.  All Rights Reserved.
  
 This is part of the Gaussian(R) 16 program.  It is based on
 the Gaussian(R) 09 system (copyright 2009, Gaussian, Inc.),
 the Gaussian(R) 03 system (copyright 2003, Gaussian, Inc.),
 the Gaussian(R) 98 system (copyright 1998, Gaussian, Inc.),
 the Gaussian(R) 94 system (copyright 1995, Gaussian, Inc.),
 the Gaussian 92(TM) system (copyright 1992, Gaussian, Inc.),
 the Gaussian 90(TM) system (copyright 1990, Gaussian, Inc.),
 the Gaussian 88(TM) system (copyright 1988, Gaussian, Inc.),
 the Gaussian 86(TM) system (copyright 1986, Carnegie Mellon
 University), and the Gaussian 82(TM) system (copyright 1983,
 Carnegie Mellon University). Gaussian is a federally registered
 trademark of Gaussian, Inc.
  
 This software contains proprietary and confidential information,
 including trade secrets, belonging to Gaussian, Inc.
  
 This software is provided under written license and may be
 used, copied, transmitted, or stored only in accord with that
 written license.
  
 The following legend is applicable only to US Government
 contracts under FAR:
  
                    RESTRICTED RIGHTS LEGEND
  
 Use, reproduction and disclosure by the US Government is
 subject to restrictions as set forth in subparagraphs (a)
 and (c) of the Commercial Computer Software - Restricted
 Rights clause in FAR 52.227-19.
  
 Gaussian, Inc.
 340 Quinnipiac St., Bldg. 40, Wallingford CT 06492
  
  
 ---------------------------------------------------------------
 Warning -- This program may not be used in any manner that
 competes with the business of Gaussian, Inc. or will provide
 assistance to any competitor of Gaussian, Inc.  The licensee
 of this program is prohibited from giving any competitor of
 Gaussian, Inc. access to this program.  By using this program,
 the user acknowledges that Gaussian, Inc. is engaged in the
 business of creating and licensing software in the field of
 computational chemistry and represents and warrants to the
 licensee that it is not a competitor of Gaussian, Inc. and that
 it will not use this program in any manner prohibited above.
 ---------------------------------------------------------------
  

 Cite this work as:
 Gaussian 16, Revision C.01,
 M. J. Frisch, G. W. Trucks, H. B. Schlegel, G. E. Scuseria, 
 M. A. Robb, J. R. Cheeseman, G. Scalmani, V. Barone, 
 G. A. Petersson, H. Nakatsuji, X. Li, M. Caricato, A. V. Marenich, 
 J. Bloino, B. G. Janesko, R. Gomperts, B. Mennucci, H. P. Hratchian, 
 J. V. Ortiz, A. F. Izmaylov, J. L. Sonnenberg, D. Williams-Young, 
 F. Ding, F. Lipparini, F. Egidi, J. Goings, B. Peng, A. Petrone, 
 T. Henderson, D. Ranasinghe, V. G. Zakrzewski, J. Gao, N. Rega, 
 G. Zheng, W. Liang, M. Hada, M. Ehara, K. Toyota, R. Fukuda, 
 J. Hasegawa, M. Ishida, T. Nakajima, Y. Honda, O. Kitao, H. Nakai, 
 T. Vreven, K. Throssell, J. A. Montgomery, Jr., J. E. Peralta, 
 F. Ogliaro, M. J. Bearpark, J. J. Heyd, E. N. Brothers, K. N. Kudin, 
 V. N. Staroverov, T. A. Keith, R. Kobayashi, J. Normand, 
 K. Raghavachari, A. P. Rendell, J. C. Burant, S. S. Iyengar, 
 J. Tomasi, M. Cossi, J. M. Millam, M. Klene, C. Adamo, R. Cammi, 
 J. W. Ochterski, R. L. Martin, K. Morokuma, O. Farkas, 
 J. B. Foresman, and D. J. Fox, Gaussian, Inc., Wallingford CT, 2019.
 
 ******************************************
 Gaussian 16:  ES64L-G16RevC.01  3-Jul-2019
                12-Mar-2023 
 ******************************************
 %nproc=4
 Will use up to    4 processors via shared memory.
 -------------------------
 # opt B3LYP/6-31G(d) freq
 -------------------------
 1/18=20,19=15,26=3,38=1/1,3;
 2/9=110,12=2,17=6,18=5,40=1/2;
 3/5=1,6=6,7=1,11=2,25=1,30=1,71=1,74=-5/1,2,3;
 4//1;
 5/5=2,38=5/2;
 6/7=2,8=2,9=2,10=2,28=1/1;
 7//1,2,3,16;
 1/18=20,19=15,26=3/3(2);
 2/9=110/2;
 99//99;
 2/9=110/2;
 3/5=1,6=6,7=1,11=2,25=1,30=1,71=1,74=-5/1,2,3;
 4/5=5,16=3,69=1/1;
 5/5=2,38=5/2;
 7//1,2,3,16;
 1/18=20,19=15,26=3/3(-5);
 2/9=110/2;
 6/7=2,8=2,9=2,10=2,19=2,28=1/1;
 99/9=1/99;
 -------------------
 Title Card Required
 -------------------
 Symbolic Z-matrix:
 Charge =  0 Multiplicity = 1
 C                    -1.29971   0.86747  -0.25568 
 C                    -1.29106  -0.50636   0.25694 
 O                    -0.68253  -1.39766  -0.27672 
 C                     1.51097  -0.83658   0.21633 
 C                     1.3845    0.3882   -0.3018 
 C                     0.48738   1.3812    0.28794 
 H                    -1.9793    1.5806    0.21309 
 H                    -1.2597    0.92919  -1.36729 
 H                    -1.69136  -0.61675   1.29651 
 H                     1.9085   -1.68251  -0.34352 
 H                     1.15394  -1.06459   1.24392 
 H                     1.6827    0.55213  -1.33758 
 H                     0.51143   2.39555  -0.1164 
 H                     0.4648    1.38778   1.39776 
 
 Add virtual bond connecting atoms C6         and C1         Dist= 3.66D+00.

 GradGradGradGradGradGradGradGradGradGradGradGradGradGradGradGradGradGrad
 Berny optimization.
 Initialization pass.
                           ----------------------------
                           !    Initial Parameters    !
                           ! (Angstroms and Degrees)  !
 --------------------------                            --------------------------
 ! Name  Definition              Value          Derivative Info.                !
 --------------------------------------------------------------------------------
 ! R1    R(1,2)                  1.4664         estimate D2E/DX2                !
 ! R2    R(1,6)                  1.9373         estimate D2E/DX2                !
 ! R3    R(1,7)                  1.0909         estimate D2E/DX2                !
 ! R4    R(1,8)                  1.114          estimate D2E/DX2                !
 ! R5    R(2,3)                  1.204          estimate D2E/DX2                !
 ! R6    R(2,9)                  1.1194         estimate D2E/DX2                !
 ! R7    R(4,5)                  1.3359         estimate D2E/DX2                !
 ! R8    R(4,10)                 1.0895         estimate D2E/DX2                !
 ! R9    R(4,11)                 1.1115         estimate D2E/DX2                !
 ! R10   R(5,6)                  1.4624         estimate D2E/DX2                !
 ! R11   R(5,12)                 1.0902         estimate D2E/DX2                !
 ! R12   R(6,13)                 1.0922         estimate D2E/DX2                !
 ! R13   R(6,14)                 1.1101         estimate D2E/DX2                !
 ! A1    A(2,1,6)               98.3316         estimate D2E/DX2                !
 ! A2    A(2,1,7)              117.7676         estimate D2E/DX2                !
 ! A3    A(2,1,8)              113.6106         estimate D2E/DX2                !
 ! A4    A(6,1,7)              106.3031         estimate D2E/DX2                !
 ! A5    A(6,1,8)              103.4251         estimate D2E/DX2                !
 ! A6    A(7,1,8)              114.5142         estimate D2E/DX2                !
 ! A7    A(1,2,3)              122.7933         estimate D2E/DX2                !
 ! A8    A(1,2,9)              114.5148         estimate D2E/DX2                !
 ! A9    A(3,2,9)              121.2898         estimate D2E/DX2                !
 ! A10   A(5,4,10)             123.1679         estimate D2E/DX2                !
 ! A11   A(5,4,11)             121.0814         estimate D2E/DX2                !
 ! A12   A(10,4,11)            115.6578         estimate D2E/DX2                !
 ! A13   A(4,5,6)              121.6154         estimate D2E/DX2                !
 ! A14   A(4,5,12)             118.7146         estimate D2E/DX2                !
 ! A15   A(6,5,12)             116.6671         estimate D2E/DX2                !
 ! A16   A(1,6,5)              105.8235         estimate D2E/DX2                !
 ! A17   A(1,6,13)              99.3637         estimate D2E/DX2                !
 ! A18   A(1,6,14)             105.2694         estimate D2E/DX2                !
 ! A19   A(5,6,13)             117.8918         estimate D2E/DX2                !
 ! A20   A(5,6,14)             114.8137         estimate D2E/DX2                !
 ! A21   A(13,6,14)            111.4107         estimate D2E/DX2                !
 ! D1    D(6,1,2,3)            -74.3741         estimate D2E/DX2                !
 ! D2    D(6,1,2,9)             92.2477         estimate D2E/DX2                !
 ! D3    D(7,1,2,3)            172.1888         estimate D2E/DX2                !
 ! D4    D(7,1,2,9)            -21.1894         estimate D2E/DX2                !
 ! D5    D(8,1,2,3)             34.295          estimate D2E/DX2                !
 ! D6    D(8,1,2,9)           -159.0832         estimate D2E/DX2                !
 ! D7    D(2,1,6,5)             55.5643         estimate D2E/DX2                !
 ! D8    D(2,1,6,13)           178.2159         estimate D2E/DX2                !
 ! D9    D(2,1,6,14)           -66.4095         estimate D2E/DX2                !
 ! D10   D(7,1,6,5)            177.8007         estimate D2E/DX2                !
 ! D11   D(7,1,6,13)           -59.5477         estimate D2E/DX2                !
 ! D12   D(7,1,6,14)            55.827          estimate D2E/DX2                !
 ! D13   D(8,1,6,5)            -61.2512         estimate D2E/DX2                !
 ! D14   D(8,1,6,13)            61.4004         estimate D2E/DX2                !
 ! D15   D(8,1,6,14)           176.775          estimate D2E/DX2                !
 ! D16   D(10,4,5,6)           160.3789         estimate D2E/DX2                !
 ! D17   D(10,4,5,12)            0.6371         estimate D2E/DX2                !
 ! D18   D(11,4,5,6)           -15.9613         estimate D2E/DX2                !
 ! D19   D(11,4,5,12)         -175.7031         estimate D2E/DX2                !
 ! D20   D(4,5,6,1)            -76.5982         estimate D2E/DX2                !
 ! D21   D(4,5,6,13)           173.443          estimate D2E/DX2                !
 ! D22   D(4,5,6,14)            39.0352         estimate D2E/DX2                !
 ! D23   D(12,5,6,1)            83.5361         estimate D2E/DX2                !
 ! D24   D(12,5,6,13)          -26.4227         estimate D2E/DX2                !
 ! D25   D(12,5,6,14)         -160.8306         estimate D2E/DX2                !
 --------------------------------------------------------------------------------
 Trust Radius=3.00D-01 FncErr=1.00D-07 GrdErr=1.00D-06 EigMax=2.50D+02 EigMin=1.00D-04
 Number of steps in this run=     69 maximum allowed number of steps=    100.
 GradGradGradGradGradGradGradGradGradGradGradGradGradGradGradGradGradGrad

                          Input orientation:                          
 ---------------------------------------------------------------------
 Center     Atomic      Atomic             Coordinates (Angstroms)
 Number     Number       Type             X           Y           Z
 ---------------------------------------------------------------------
      1          6           0       -1.299709    0.867467   -0.255684
      2          6           0       -1.291057   -0.506356    0.256939
      3          8           0       -0.682526   -1.397656   -0.276721
      4          6           0        1.510970   -0.836584    0.216334
      5          6           0        1.384502    0.388204   -0.301796
      6          6           0        0.487378    1.381195    0.287936
      7          1           0       -1.979297    1.580597    0.213094
      8          1           0       -1.259700    0.929189   -1.367294
      9          1           0       -1.691363   -0.616752    1.296512
     10          1           0        1.908495   -1.682505   -0.343520
     11          1           0        1.153940   -1.064595    1.243916
     12          1           0        1.682696    0.552134   -1.337575
     13          1           0        0.511426    2.395545   -0.116398
     14          1           0        0.464804    1.387775    1.397756
 ---------------------------------------------------------------------
                    Distance matrix (angstroms):
                    1          2          3          4          5
     1  C    0.000000
     2  C    1.466372   0.000000
     3  O    2.347795   1.203960   0.000000
     4  C    3.320619   2.821711   2.317181   0.000000
     5  C    2.727051   2.875941   2.731763   1.335874   0.000000
     6  C    1.937297   2.593577   3.067495   2.443647   1.462411
     7  H    1.090939   2.197947   3.285046   4.245555   3.605836
     8  H    1.114041   2.167927   2.633759   3.647252   2.901681
     9  H    2.183028   1.119439   2.025494   3.386746   3.609082
    10  H    4.099103   3.461360   2.607487   1.089516   2.136386
    11  H    3.464399   2.695137   2.407462   1.111478   2.133778
    12  H    3.188207   3.536394   3.243666   2.091091   1.090243
    13  H    2.373738   3.436474   3.979899   3.399479   2.196828
    14  H    2.473477   2.823516   3.446573   2.727269   2.175652
                    6          7          8          9         10
     6  C    0.000000
     7  H    2.475853   0.000000
     8  H    2.448750   1.854664   0.000000
     9  H    3.123448   2.466788   3.110005   0.000000
    10  H    3.435778   5.106132   4.231609   4.096891   0.000000
    11  H    2.709260   4.228098   4.076671   2.880812   1.863094
    12  H    2.181379   4.107615   2.966605   4.437227   2.456164
    13  H    1.092232   2.641289   2.617600   3.990304   4.316698
    14  H    1.110069   2.722909   3.290853   2.945749   3.813516
                   11         12         13         14
    11  H    0.000000
    12  H    3.091519   0.000000
    13  H    3.773042   2.502261   0.000000
    14  H    2.551998   3.108632   1.819460   0.000000
 Stoichiometry    C5H8O
 Framework group  C1[X(C5H8O)]
 Deg. of freedom    36
 Full point group                 C1      NOp   1
 Largest Abelian subgroup         C1      NOp   1
 Largest concise Abelian subgroup C1      NOp   1
                         Standard orientation:                         
 ---------------------------------------------------------------------
 Center     Atomic      Atomic             Coordinates (Angstroms)
 Number     Number       Type             X           Y           Z
 ---------------------------------------------------------------------
      1          6           0       -1.328958    0.823490   -0.255162
      2          6           0       -1.275640   -0.549045    0.258210
      3          8           0       -0.639023   -1.420551   -0.275377
      4          6           0        1.535556   -0.788714    0.215867
      5          6           0        1.369289    0.431059   -0.302848
      6          6           0        0.440985    1.394923    0.286952
      7          1           0       -2.030889    1.514589    0.213690
      8          1           0       -1.291702    0.885836   -1.366833
      9          1           0       -1.671482   -0.671706    1.298117
     10          1           0        1.959795   -1.621688   -0.343794
     11          1           0        1.186754   -1.027540    1.243819
     12          1           0        1.661347    0.603934   -1.338921
     13          1           0        0.432021    2.409290   -0.117955
     14          1           0        0.418950    1.401405    1.396784
 ---------------------------------------------------------------------
 Rotational constants (GHZ):           4.7675520           3.8039657           2.4074173
 Standard basis: 6-31G(d) (6D, 7F)
 There are   106 symmetry adapted cartesian basis functions of A   symmetry.
 There are   106 symmetry adapted basis functions of A   symmetry.
   106 basis functions,   200 primitive gaussians,   106 cartesian basis functions
    23 alpha electrons       23 beta electrons
       nuclear repulsion energy       228.5019501715 Hartrees.
 NAtoms=   14 NActive=   14 NUniq=   14 SFac= 1.00D+00 NAtFMM=   60 NAOKFM=F Big=F
 Integral buffers will be    131072 words long.
 Raffenetti 2 integral format.
 Two-electron integral symmetry is turned on.
 One-electron integrals computed using PRISM.
 NBasis=   106 RedAO= T EigKep=  4.30D-03  NBF=   106
 NBsUse=   106 1.00D-06 EigRej= -1.00D+00 NBFU=   106
 ExpMin= 1.61D-01 ExpMax= 5.48D+03 ExpMxC= 8.25D+02 IAcc=3 IRadAn=         5 AccDes= 0.00D+00
 Harris functional with IExCor=  402 and IRadAn=       5 diagonalized for initial guess.
 HarFok:  IExCor=  402 AccDes= 0.00D+00 IRadAn=         5 IDoV= 1 UseB2=F ITyADJ=14
 ICtDFT=  3500011 ScaDFX=  1.000000  1.000000  1.000000  1.000000
 FoFCou: FMM=F IPFlag=           0 FMFlag=      100000 FMFlg1=           0
         NFxFlg=           0 DoJE=T BraDBF=F KetDBF=T FulRan=T
         wScrn=  0.000000 ICntrl=       500 IOpCl=  0 I1Cent=   200000004 NGrid=           0
         NMat0=    1 NMatS0=      1 NMatT0=    0 NMatD0=    1 NMtDS0=    0 NMtDT0=    0
 Petite list used in FoFCou.
 Keep R1 ints in memory in canonical form, NReq=19808022.
 Requested convergence on RMS density matrix=1.00D-08 within 128 cycles.
 Requested convergence on MAX density matrix=1.00D-06.
 Requested convergence on             energy=1.00D-06.
 No special actions if energy rises.
 Integral accuracy reduced to 1.0D-05 until final iterations.
 Initial convergence to 1.0D-05 achieved.  Increase integral accuracy.
 SCF Done:  E(RB3LYP) =  -270.483978553     A.U. after   14 cycles
            NFock= 14  Conv=0.54D-08     -V/T= 2.0098

 **********************************************************************

            Population analysis using the SCF Density.

 **********************************************************************

 Orbital symmetries:
       Occupied  (A) (A) (A) (A) (A) (A) (A) (A) (A) (A) (A) (A)
                 (A) (A) (A) (A) (A) (A) (A) (A) (A) (A) (A)
       Virtual   (A) (A) (A) (A) (A) (A) (A) (A) (A) (A) (A) (A)
                 (A) (A) (A) (A) (A) (A) (A) (A) (A) (A) (A) (A)
                 (A) (A) (A) (A) (A) (A) (A) (A) (A) (A) (A) (A)
                 (A) (A) (A) (A) (A) (A) (A) (A) (A) (A) (A) (A)
                 (A) (A) (A) (A) (A) (A) (A) (A) (A) (A) (A) (A)
                 (A) (A) (A) (A) (A) (A) (A) (A) (A) (A) (A) (A)
                 (A) (A) (A) (A) (A) (A) (A) (A) (A) (A) (A)
 The electronic state is 1-A.
 Alpha  occ. eigenvalues --  -19.13467 -10.25543 -10.22015 -10.20697 -10.18680
 Alpha  occ. eigenvalues --  -10.18171  -1.03920  -0.79418  -0.73306  -0.66246
 Alpha  occ. eigenvalues --   -0.56238  -0.55336  -0.48239  -0.46213  -0.43292
 Alpha  occ. eigenvalues --   -0.43037  -0.39925  -0.38649  -0.37871  -0.35303
 Alpha  occ. eigenvalues --   -0.30497  -0.25781  -0.22781
 Alpha virt. eigenvalues --   -0.01828   0.01203   0.10145   0.10922   0.11468
 Alpha virt. eigenvalues --    0.13342   0.14573   0.16304   0.17301   0.18609
 Alpha virt. eigenvalues --    0.20186   0.29150   0.30138   0.31217   0.36130
 Alpha virt. eigenvalues --    0.48977   0.51608   0.52923   0.56403   0.56877
 Alpha virt. eigenvalues --    0.58004   0.60870   0.63291   0.65153   0.68734
 Alpha virt. eigenvalues --    0.70202   0.73155   0.76453   0.79361   0.80476
 Alpha virt. eigenvalues --    0.84261   0.85918   0.87870   0.89716   0.91289
 Alpha virt. eigenvalues --    0.92464   0.93265   0.97315   1.01791   1.08920
 Alpha virt. eigenvalues --    1.12162   1.14032   1.20350   1.30076   1.32324
 Alpha virt. eigenvalues --    1.40053   1.45919   1.49963   1.52836   1.54301
 Alpha virt. eigenvalues --    1.63584   1.71254   1.73365   1.78563   1.80534
 Alpha virt. eigenvalues --    1.86870   1.89031   1.94921   1.96502   1.98597
 Alpha virt. eigenvalues --    2.08910   2.12352   2.18004   2.19892   2.24760
 Alpha virt. eigenvalues --    2.25299   2.27427   2.31058   2.39529   2.52408
 Alpha virt. eigenvalues --    2.54679   2.61758   2.65046   2.77935   2.86109
 Alpha virt. eigenvalues --    2.89990   3.00581   3.95847   4.09958   4.22938
 Alpha virt. eigenvalues --    4.28965   4.42027   4.43734
          Condensed to atoms (all electrons):
               1          2          3          4          5          6
     1  C    5.352154   0.366195  -0.075103  -0.014999  -0.041832   0.245604
     2  C    0.366195   4.609011   0.527838  -0.010599  -0.016073  -0.016874
     3  O   -0.075103   0.527838   8.010582   0.003088  -0.011751  -0.014050
     4  C   -0.014999  -0.010599   0.003088   5.003675   0.653148  -0.042686
     5  C   -0.041832  -0.016073  -0.011751   0.653148   4.772786   0.435044
     6  C    0.245604  -0.016874  -0.014050  -0.042686   0.435044   5.092234
     7  H    0.325485  -0.015487   0.003564   0.000351   0.002535  -0.015932
     8  H    0.349768  -0.025651   0.003235  -0.000225  -0.001920  -0.015128
     9  H   -0.119173   0.342337  -0.056075  -0.001816   0.000543  -0.000961
    10  H    0.000107  -0.000266   0.000579   0.368413  -0.024606   0.004993
    11  H   -0.000128  -0.000466  -0.005854   0.373026  -0.043385  -0.010455
    12  H    0.000090   0.000014  -0.000326  -0.045015   0.375114  -0.055100
    13  H   -0.022949   0.001228   0.000168   0.004604  -0.025871   0.366182
    14  H   -0.021137  -0.003457  -0.000043  -0.005707  -0.035160   0.363482
               7          8          9         10         11         12
     1  C    0.325485   0.349768  -0.119173   0.000107  -0.000128   0.000090
     2  C   -0.015487  -0.025651   0.342337  -0.000266  -0.000466   0.000014
     3  O    0.003564   0.003235  -0.056075   0.000579  -0.005854  -0.000326
     4  C    0.000351  -0.000225  -0.001816   0.368413   0.373026  -0.045015
     5  C    0.002535  -0.001920   0.000543  -0.024606  -0.043385   0.375114
     6  C   -0.015932  -0.015128  -0.000961   0.004993  -0.010455  -0.055100
     7  H    0.577565  -0.029351   0.004769   0.000002  -0.000029  -0.000039
     8  H   -0.029351   0.546506   0.005961  -0.000005   0.000070   0.001416
     9  H    0.004769   0.005961   0.738516   0.000017   0.000599   0.000019
    10  H    0.000002  -0.000005   0.000017   0.538529  -0.039063  -0.007422
    11  H   -0.000029   0.000070   0.000599  -0.039063   0.571445   0.005793
    12  H   -0.000039   0.001416   0.000019  -0.007422   0.005793   0.596654
    13  H   -0.000246  -0.002358  -0.000130  -0.000174   0.000058  -0.004585
    14  H   -0.000503   0.001914   0.001845  -0.000042   0.005748   0.004853
              13         14
     1  C   -0.022949  -0.021137
     2  C    0.001228  -0.003457
     3  O    0.000168  -0.000043
     4  C    0.004604  -0.005707
     5  C   -0.025871  -0.035160
     6  C    0.366182   0.363482
     7  H   -0.000246  -0.000503
     8  H   -0.002358   0.001914
     9  H   -0.000130   0.001845
    10  H   -0.000174  -0.000042
    11  H    0.000058   0.005748
    12  H   -0.004585   0.004853
    13  H    0.556176  -0.035212
    14  H   -0.035212   0.565412
 Mulliken charges:
               1
     1  C   -0.344084
     2  C    0.242250
     3  O   -0.385850
     4  C   -0.285258
     5  C   -0.038572
     6  C   -0.336352
     7  H    0.147319
     8  H    0.165768
     9  H    0.083549
    10  H    0.158939
    11  H    0.142642
    12  H    0.128534
    13  H    0.163109
    14  H    0.158007
 Sum of Mulliken charges =  -0.00000
 Mulliken charges with hydrogens summed into heavy atoms:
               1
     1  C   -0.030997
     2  C    0.325799
     3  O   -0.385850
     4  C    0.016324
     5  C    0.089961
     6  C   -0.015236
 Electronic spatial extent (au):  <R**2>=            555.4978
 Charge=             -0.0000 electrons
 Dipole moment (field-independent basis, Debye):
    X=             -0.3610    Y=              2.0401    Z=              0.6178  Tot=              2.1619
 Quadrupole moment (field-independent basis, Debye-Ang):
   XX=            -36.4811   YY=            -37.8473   ZZ=            -35.0416
   XY=             -2.4579   XZ=             -1.3947   YZ=             -1.2895
 Traceless Quadrupole moment (field-independent basis, Debye-Ang):
   XX=             -0.0244   YY=             -1.3907   ZZ=              1.4151
   XY=             -2.4579   XZ=             -1.3947   YZ=             -1.2895
 Octapole moment (field-independent basis, Debye-Ang**2):
  XXX=            -10.1582  YYY=              1.7124  ZZZ=             -1.3900  XYY=              2.4789
  XXY=             -3.9833  XXZ=             -2.2266  XZZ=             -0.2805  YZZ=             -1.0033
  YYZ=              0.1365  XYZ=              0.5623
 Hexadecapole moment (field-independent basis, Debye-Ang**3):
 XXXX=           -378.8416 YYYY=           -281.7717 ZZZZ=            -84.0358 XXXY=             -3.9734
 XXXZ=             -7.1277 YYYX=             -4.8213 YYYZ=              0.2319 ZZZX=              0.6547
 ZZZY=             -0.0716 XXYY=           -103.7306 XXZZ=            -73.6658 YYZZ=            -60.8817
 XXYZ=              1.3332 YYXZ=             -2.5409 ZZXY=              0.6976
 N-N= 2.285019501715D+02 E-N=-1.086085931003D+03  KE= 2.678525220720D+02
 Calling FoFJK, ICntrl=      2127 FMM=F ISym2X=0 I1Cent= 0 IOpClX= 0 NMat=1 NMatS=1 NMatT=0.
 ***** Axes restored to original set *****
 -------------------------------------------------------------------
 Center     Atomic                   Forces (Hartrees/Bohr)
 Number     Number              X              Y              Z
 -------------------------------------------------------------------
      1        6           0.038980216    0.006977587   -0.003957606
      2        6          -0.019316055    0.029835556    0.019686662
      3        8          -0.002908518   -0.031684592   -0.018343121
      4        6           0.006258435   -0.011440397    0.019657345
      5        6          -0.003762180    0.008205661   -0.008977562
      6        6          -0.034462980   -0.006093293   -0.000391154
      7        1           0.000013765   -0.001231638   -0.000420139
      8        1           0.000097387    0.001310461    0.015906599
      9        1          -0.000928652   -0.002048974   -0.002246921
     10        1           0.005228114    0.004546801    0.003243098
     11        1           0.008569044    0.002716820   -0.014310473
     12        1           0.001436386    0.000663787    0.000777863
     13        1           0.003381761   -0.001648470    0.001452268
     14        1          -0.002586724   -0.000109308   -0.012076860
 -------------------------------------------------------------------
 Cartesian Forces:  Max     0.038980216 RMS     0.013192356

 GradGradGradGradGradGradGradGradGradGradGradGradGradGradGradGradGradGrad
 Berny optimization.
 FormGI is forming the generalized inverse of G from B-inverse, IUseBI=4.
 Internal  Forces:  Max     0.065463614 RMS     0.016368657
 Search for a local minimum.
 Step number   1 out of a maximum of   69
 All quantities printed in internal units (Hartrees-Bohrs-Radians)
 Mixed Optimization -- RFO/linear search
 Second derivative matrix not updated -- first step.
 ITU=  0
     Eigenvalues ---    0.00230   0.01211   0.01263   0.01376   0.02142
     Eigenvalues ---    0.02937   0.02948   0.05259   0.05890   0.05930
     Eigenvalues ---    0.06549   0.06938   0.08059   0.10145   0.10950
     Eigenvalues ---    0.11846   0.15419   0.16000   0.16000   0.16000
     Eigenvalues ---    0.21938   0.21946   0.22081   0.22146   0.31621
     Eigenvalues ---    0.32176   0.32444   0.32593   0.34556   0.34704
     Eigenvalues ---    0.34785   0.34869   0.36178   0.36664   0.58140
     Eigenvalues ---    1.02858
 RFO step:  Lambda=-6.72750968D-02 EMin= 2.30000000D-03
 Linear search not attempted -- first point.
 Maximum step size (   0.300) exceeded in Quadratic search.
    -- Step size scaled by   0.732
 Iteration  1 RMS(Cart)=  0.27439486 RMS(Int)=  0.01807900
 Iteration  2 RMS(Cart)=  0.03047715 RMS(Int)=  0.00158350
 Iteration  3 RMS(Cart)=  0.00059437 RMS(Int)=  0.00155300
 Iteration  4 RMS(Cart)=  0.00000131 RMS(Int)=  0.00155300
 Iteration  5 RMS(Cart)=  0.00000000 RMS(Int)=  0.00155300
 Variable       Old X    -DE/DX   Delta X   Delta X   Delta X     New X
                                 (Linear)    (Quad)   (Total)
    R1        2.77104   0.00320   0.00000   0.00546   0.00546   2.77650
    R2        3.66096  -0.01852   0.00000  -0.08035  -0.08035   3.58061
    R3        2.06158  -0.00099   0.00000  -0.00176  -0.00176   2.05982
    R4        2.10523  -0.01580   0.00000  -0.02972  -0.02972   2.07551
    R5        2.27515   0.03012   0.00000   0.02012   0.02012   2.29527
    R6        2.11543  -0.00155   0.00000  -0.00296  -0.00296   2.11247
    R7        2.52444   0.00906   0.00000   0.01022   0.01022   2.53466
    R8        2.05889  -0.00329   0.00000  -0.00579  -0.00579   2.05310
    R9        2.10039  -0.01654   0.00000  -0.03091  -0.03091   2.06948
   R10        2.76356   0.00753   0.00000   0.01271   0.01271   2.77626
   R11        2.06026  -0.00025   0.00000  -0.00043  -0.00043   2.05983
   R12        2.06402  -0.00199   0.00000  -0.00354  -0.00354   2.06048
   R13        2.09773  -0.01202   0.00000  -0.02238  -0.02238   2.07535
    A1        1.71621   0.06546   0.00000   0.17576   0.17560   1.89181
    A2        2.05543  -0.01784   0.00000  -0.05578  -0.05378   2.00165
    A3        1.98288  -0.00765   0.00000  -0.00362  -0.00766   1.97521
    A4        1.85534  -0.02729   0.00000  -0.07299  -0.07100   1.78434
    A5        1.80511  -0.01345   0.00000  -0.01141  -0.01451   1.79060
    A6        1.99865   0.00815   0.00000  -0.00328  -0.00570   1.99295
    A7        2.14315   0.01234   0.00000   0.03591   0.03317   2.17632
    A8        1.99866  -0.00236   0.00000   0.00283   0.00010   1.99876
    A9        2.11691  -0.00666   0.00000  -0.01073  -0.01348   2.10343
   A10        2.14968  -0.00193   0.00000  -0.00558  -0.00616   2.14352
   A11        2.11327   0.00279   0.00000   0.00964   0.00906   2.12233
   A12        2.01861  -0.00042   0.00000  -0.00070  -0.00128   2.01733
   A13        2.12259   0.02043   0.00000   0.05623   0.05467   2.17725
   A14        2.07196  -0.00695   0.00000  -0.00827  -0.00984   2.06212
   A15        2.03622  -0.00926   0.00000  -0.01756  -0.01919   2.01704
   A16        1.84697   0.06080   0.00000   0.16355   0.16312   2.01009
   A17        1.73422  -0.02463   0.00000  -0.06594  -0.06323   1.67099
   A18        1.83730  -0.01576   0.00000  -0.01666  -0.01981   1.81748
   A19        2.05760  -0.01511   0.00000  -0.05663  -0.05466   2.00294
   A20        2.00388  -0.00966   0.00000  -0.00881  -0.01298   1.99090
   A21        1.94448   0.00712   0.00000  -0.00247  -0.00481   1.93967
    D1       -1.29807  -0.01735   0.00000  -0.13995  -0.14125  -1.43932
    D2        1.61003  -0.00284   0.00000  -0.01039  -0.01153   1.59849
    D3        3.00526  -0.01955   0.00000  -0.14311  -0.14222   2.86304
    D4       -0.36983  -0.00504   0.00000  -0.01356  -0.01250  -0.38233
    D5        0.59856  -0.00145   0.00000  -0.06417  -0.06401   0.53455
    D6       -2.77652   0.01306   0.00000   0.06538   0.06571  -2.71082
    D7        0.96978   0.01067   0.00000   0.06982   0.07230   1.04208
    D8        3.11045   0.00602   0.00000   0.03977   0.04031  -3.13242
    D9       -1.15906  -0.00056   0.00000   0.00682   0.00788  -1.15119
   D10        3.10321   0.00994   0.00000   0.05928   0.05940  -3.12058
   D11       -1.03930   0.00528   0.00000   0.02923   0.02741  -1.01189
   D12        0.97436  -0.00129   0.00000  -0.00372  -0.00502   0.96934
   D13       -1.06904   0.00031   0.00000   0.01691   0.01767  -1.05137
   D14        1.07164  -0.00435   0.00000  -0.01314  -0.01432   1.05732
   D15        3.08531  -0.01092   0.00000  -0.04609  -0.04675   3.03856
   D16        2.79914   0.01177   0.00000   0.09241   0.09261   2.89175
   D17        0.01112   0.00008   0.00000  -0.00269  -0.00289   0.00823
   D18       -0.27858   0.00304   0.00000   0.02631   0.02651  -0.25207
   D19       -3.06660  -0.00865   0.00000  -0.06879  -0.06899  -3.13559
   D20       -1.33689  -0.01686   0.00000  -0.13748  -0.13884  -1.47573
   D21        3.02715  -0.01949   0.00000  -0.13705  -0.13575   2.89140
   D22        0.68129  -0.00191   0.00000  -0.05650  -0.05636   0.62493
   D23        1.45798  -0.00511   0.00000  -0.04283  -0.04424   1.41374
   D24       -0.46116  -0.00774   0.00000  -0.04240  -0.04115  -0.50231
   D25       -2.80702   0.00984   0.00000   0.03815   0.03824  -2.76878
         Item               Value     Threshold  Converged?
 Maximum Force            0.065464     0.000450     NO 
 RMS     Force            0.016369     0.000300     NO 
 Maximum Displacement     1.259596     0.001800     NO 
 RMS     Displacement     0.290326     0.001200     NO 
 Predicted change in Energy=-3.835914D-02
 GradGradGradGradGradGradGradGradGradGradGradGradGradGradGradGradGradGrad

                          Input orientation:                          
 ---------------------------------------------------------------------
 Center     Atomic      Atomic             Coordinates (Angstroms)
 Number     Number       Type             X           Y           Z
 ---------------------------------------------------------------------
      1          6           0       -1.323005    0.873990   -0.222188
      2          6           0       -1.635773   -0.481729    0.249965
      3          8           0       -1.349075   -1.503111   -0.341515
      4          6           0        1.841776   -0.801783    0.237009
      5          6           0        1.479741    0.370064   -0.305896
      6          6           0        0.466642    1.274841    0.253898
      7          1           0       -1.878122    1.668890    0.275907
      8          1           0       -1.303728    0.956538   -1.317226
      9          1           0       -2.081811   -0.524949    1.274083
     10          1           0        2.417604   -1.548074   -0.303223
     11          1           0        1.572548   -1.065386    1.265271
     12          1           0        1.773027    0.572008   -1.336105
     13          1           0        0.469171    2.280243   -0.168056
     14          1           0        0.451564    1.306116    1.351575
 ---------------------------------------------------------------------
                    Distance matrix (angstroms):
                    1          2          3          4          5
     1  C    0.000000
     2  C    1.469261   0.000000
     3  O    2.380237   1.214605   0.000000
     4  C    3.610390   3.492270   3.317844   0.000000
     5  C    2.848918   3.277340   3.392972   1.341283   0.000000
     6  C    1.894776   2.739654   3.371700   2.490712   1.469135
     7  H    1.090009   2.164386   3.274552   4.465801   3.647010
     8  H    1.098314   2.152895   2.646496   3.924479   3.019012
     9  H    2.184409   1.117871   2.025799   4.067763   3.997754
    10  H    4.457030   4.227644   3.767143   1.086453   2.135147
    11  H    3.789187   3.415380   3.362923   1.095122   2.130187
    12  H    3.304152   3.904599   3.878511   2.089669   1.090013
    13  H    2.278678   3.497717   4.201176   3.398089   2.165418
    14  H    2.410925   2.960896   3.741739   2.760106   2.163458
                    6          7          8          9         10
     6  C    0.000000
     7  H    2.377746   0.000000
     8  H    2.388295   1.837239   0.000000
     9  H    3.282474   2.418837   3.084655   0.000000
    10  H    3.476419   5.397917   4.598869   4.876415   0.000000
    11  H    2.778950   4.512452   4.362388   3.694116   1.845883
    12  H    2.174564   4.139157   3.100748   4.782904   2.444805
    13  H    1.090361   2.465895   2.493182   4.056646   4.297753
    14  H    1.098226   2.591544   3.213371   3.126786   3.840583
                   11         12         13         14
    11  H    0.000000
    12  H    3.080326   0.000000
    13  H    3.803301   2.445904   0.000000
    14  H    2.624514   3.083635   1.805136   0.000000
 Stoichiometry    C5H8O
 Framework group  C1[X(C5H8O)]
 Deg. of freedom    36
 Full point group                 C1      NOp   1
 Largest Abelian subgroup         C1      NOp   1
 Largest concise Abelian subgroup C1      NOp   1
                         Standard orientation:                         
 ---------------------------------------------------------------------
 Center     Atomic      Atomic             Coordinates (Angstroms)
 Number     Number       Type             X           Y           Z
 ---------------------------------------------------------------------
      1          6           0       -1.103226    1.046346   -0.202902
      2          6           0       -1.582231   -0.251894    0.290912
      3          8           0       -1.443007   -1.307790   -0.293011
      4          6           0        1.822469   -1.025994    0.222107
      5          6           0        1.607188    0.177909   -0.328632
      6          6           0        0.732081    1.213305    0.237497
      7          1           0       -1.539942    1.912075    0.295005
      8          1           0       -1.093674    1.114985   -1.299027
      9          1           0       -2.010946   -0.226190    1.322987
     10          1           0        2.285304   -1.846669   -0.318872
     11          1           0        1.540184   -1.241935    1.257953
     12          1           0        1.905197    0.329548   -1.366093
     13          1           0        0.858577    2.205512   -0.196566
     14          1           0        0.741667    1.256972    1.334812
 ---------------------------------------------------------------------
 Rotational constants (GHZ):           4.9401759           2.6562793           1.9153394
 Standard basis: 6-31G(d) (6D, 7F)
 There are   106 symmetry adapted cartesian basis functions of A   symmetry.
 There are   106 symmetry adapted basis functions of A   symmetry.
   106 basis functions,   200 primitive gaussians,   106 cartesian basis functions
    23 alpha electrons       23 beta electrons
       nuclear repulsion energy       216.6753285678 Hartrees.
 NAtoms=   14 NActive=   14 NUniq=   14 SFac= 1.00D+00 NAtFMM=   60 NAOKFM=F Big=F
 Integral buffers will be    131072 words long.
 Raffenetti 2 integral format.
 Two-electron integral symmetry is turned on.
 One-electron integrals computed using PRISM.
 NBasis=   106 RedAO= T EigKep=  4.91D-03  NBF=   106
 NBsUse=   106 1.00D-06 EigRej= -1.00D+00 NBFU=   106
 Initial guess from the checkpoint file:  "/home/rpaton/Gau-110414.chk"
 B after Tr=    -0.000000   -0.000000    0.000000
         Rot=    0.994551    0.002831   -0.013089    0.103386 Ang=  11.97 deg.
 ExpMin= 1.61D-01 ExpMax= 5.48D+03 ExpMxC= 8.25D+02 IAcc=3 IRadAn=         5 AccDes= 0.00D+00
 Harris functional with IExCor=  402 and IRadAn=       5 diagonalized for initial guess.
 HarFok:  IExCor=  402 AccDes= 0.00D+00 IRadAn=         5 IDoV= 1 UseB2=F ITyADJ=14
 ICtDFT=  3500011 ScaDFX=  1.000000  1.000000  1.000000  1.000000
 FoFCou: FMM=F IPFlag=           0 FMFlag=      100000 FMFlg1=           0
         NFxFlg=           0 DoJE=T BraDBF=F KetDBF=T FulRan=T
         wScrn=  0.000000 ICntrl=       500 IOpCl=  0 I1Cent=   200000004 NGrid=           0
         NMat0=    1 NMatS0=      1 NMatT0=    0 NMatD0=    1 NMtDS0=    0 NMtDT0=    0
 Petite list used in FoFCou.
 Keep R1 ints in memory in canonical form, NReq=19808022.
 Requested convergence on RMS density matrix=1.00D-08 within 128 cycles.
 Requested convergence on MAX density matrix=1.00D-06.
 Requested convergence on             energy=1.00D-06.
 No special actions if energy rises.
 Integral accuracy reduced to 1.0D-05 until final iterations.
 Initial convergence to 1.0D-05 achieved.  Increase integral accuracy.
 SCF Done:  E(RB3LYP) =  -270.501493065     A.U. after   16 cycles
            NFock= 16  Conv=0.47D-08     -V/T= 2.0103
 Calling FoFJK, ICntrl=      2127 FMM=F ISym2X=0 I1Cent= 0 IOpClX= 0 NMat=1 NMatS=1 NMatT=0.
 ***** Axes restored to original set *****
 -------------------------------------------------------------------
 Center     Atomic                   Forces (Hartrees/Bohr)
 Number     Number              X              Y              Z
 -------------------------------------------------------------------
      1        6           0.053037962    0.012690834    0.000389876
      2        6           0.003135088   -0.002732342    0.010325284
      3        8          -0.001389462   -0.002634543   -0.003230839
      4        6           0.000753292    0.002280919    0.008302671
      5        6          -0.010908795   -0.015112283   -0.012533772
      6        6          -0.048010385    0.000136351    0.000221848
      7        1          -0.001610264    0.000363239   -0.001681744
      8        1          -0.002194943    0.000228859    0.005421182
      9        1          -0.000563478   -0.001244146   -0.001507787
     10        1           0.003872379    0.003531940    0.000301371
     11        1          -0.001994607    0.000161542   -0.005137688
     12        1           0.001196485    0.000252281   -0.000197352
     13        1           0.005565173    0.001782892    0.003393915
     14        1          -0.000888443    0.000294459   -0.004066965
 -------------------------------------------------------------------
 Cartesian Forces:  Max     0.053037962 RMS     0.012118688

 GradGradGradGradGradGradGradGradGradGradGradGradGradGradGradGradGradGrad
 Berny optimization.
 Using GEDIIS/GDIIS optimizer.
 FormGI is forming the generalized inverse of G from B-inverse, IUseBI=4.
 Internal  Forces:  Max     0.051470468 RMS     0.007537137
 Search for a local minimum.
 Step number   2 out of a maximum of   69
 All quantities printed in internal units (Hartrees-Bohrs-Radians)
 Mixed Optimization -- RFO/linear search
 Update second derivatives using D2CorX and points    1    2
 DE= -1.75D-02 DEPred=-3.84D-02 R= 4.57D-01
 Trust test= 4.57D-01 RLast= 4.59D-01 DXMaxT set to 3.00D-01
 ITU=  0  0
 Use linear search instead of GDIIS.
     Eigenvalues ---    0.00232   0.01219   0.01252   0.01459   0.02148
     Eigenvalues ---    0.02911   0.02976   0.04480   0.05217   0.05720
     Eigenvalues ---    0.06140   0.07976   0.08365   0.09425   0.12140
     Eigenvalues ---    0.12912   0.15719   0.15985   0.16000   0.16004
     Eigenvalues ---    0.22015   0.22027   0.22097   0.31612   0.31869
     Eigenvalues ---    0.32336   0.32558   0.34548   0.34701   0.34782
     Eigenvalues ---    0.34861   0.35848   0.36614   0.44929   0.58595
     Eigenvalues ---    1.02563
 RFO step:  Lambda=-7.14868923D-02 EMin= 2.31798185D-03
 Quartic linear search produced a step of  0.77318.
 Maximum step size (   0.300) exceeded in Quadratic search.
    -- Step size scaled by   0.605
 Iteration  1 RMS(Cart)=  0.21099360 RMS(Int)=  0.02674422
 Iteration  2 RMS(Cart)=  0.03998504 RMS(Int)=  0.00329419
 Iteration  3 RMS(Cart)=  0.00047681 RMS(Int)=  0.00327411
 Iteration  4 RMS(Cart)=  0.00000234 RMS(Int)=  0.00327411
 Iteration  5 RMS(Cart)=  0.00000001 RMS(Int)=  0.00327411
 Variable       Old X    -DE/DX   Delta X   Delta X   Delta X     New X
                                 (Linear)    (Quad)   (Total)
    R1        2.77650   0.00764   0.00422   0.01509   0.01931   2.79581
    R2        3.58061  -0.05147  -0.06213  -0.28367  -0.34580   3.23481
    R3        2.05982   0.00032  -0.00136   0.00094  -0.00042   2.05940
    R4        2.07551  -0.00543  -0.02298  -0.00853  -0.03150   2.04401
    R5        2.29527   0.00346   0.01555  -0.00303   0.01252   2.30779
    R6        2.11247  -0.00111  -0.00229  -0.00220  -0.00449   2.10798
    R7        2.53466  -0.00310   0.00790  -0.00666   0.00124   2.53590
    R8        2.05310  -0.00052  -0.00448  -0.00027  -0.00474   2.04836
    R9        2.06948  -0.00437  -0.02390  -0.00583  -0.02972   2.03976
   R10        2.77626   0.00412   0.00982   0.00649   0.01631   2.79258
   R11        2.05983   0.00055  -0.00034   0.00126   0.00092   2.06075
   R12        2.06048   0.00034  -0.00273   0.00126  -0.00147   2.05901
   R13        2.07535  -0.00404  -0.01730  -0.00617  -0.02347   2.05188
    A1        1.89181  -0.00600   0.13577  -0.02008   0.11413   2.00593
    A2        2.00165   0.00098  -0.04158  -0.00409  -0.04309   1.95856
    A3        1.97521   0.00095  -0.00593   0.01332  -0.00023   1.97498
    A4        1.78434   0.00237  -0.05490   0.00877  -0.04277   1.74157
    A5        1.79060   0.00351  -0.01122   0.02995   0.01339   1.80399
    A6        1.99295  -0.00182  -0.00440  -0.02440  -0.03138   1.96157
    A7        2.17632  -0.00141   0.02565  -0.00361   0.01264   2.18896
    A8        1.99876   0.00226   0.00007   0.01334   0.00400   2.00276
    A9        2.10343  -0.00063  -0.01042   0.00163  -0.01827   2.08516
   A10        2.14352  -0.00228  -0.00477  -0.00921  -0.01578   2.12774
   A11        2.12233   0.00057   0.00701   0.00255   0.00776   2.13009
   A12        2.01733   0.00171  -0.00099   0.00657   0.00377   2.02110
   A13        2.17725  -0.00084   0.04227  -0.00068   0.03565   2.21290
   A14        2.06212  -0.00002  -0.00761   0.00926  -0.00429   2.05784
   A15        2.01704   0.00179  -0.01483   0.01402  -0.00678   2.01026
   A16        2.01009  -0.01419   0.12612  -0.04505   0.07967   2.08976
   A17        1.67099   0.00949  -0.04889   0.03817  -0.00698   1.66401
   A18        1.81748   0.00349  -0.01532   0.02363   0.00374   1.82122
   A19        2.00294  -0.00002  -0.04226  -0.01234  -0.05295   1.94998
   A20        1.99090   0.00428  -0.01004   0.02239   0.00623   1.99713
   A21        1.93967  -0.00268  -0.00372  -0.02425  -0.03052   1.90915
    D1       -1.43932  -0.00222  -0.10921  -0.12052  -0.23108  -1.67040
    D2        1.59849   0.00016  -0.00892   0.00531  -0.00561   1.59289
    D3        2.86304  -0.00183  -0.10996  -0.11609  -0.22419   2.63885
    D4       -0.38233   0.00056  -0.00967   0.00974   0.00129  -0.38104
    D5        0.53455  -0.00108  -0.04949  -0.08904  -0.13807   0.39649
    D6       -2.71082   0.00130   0.05081   0.03680   0.08741  -2.62341
    D7        1.04208  -0.00009   0.05590   0.03715   0.09626   1.13833
    D8       -3.13242   0.00001   0.03117   0.02794   0.06079  -3.07164
    D9       -1.15119   0.00098   0.00609   0.01971   0.02724  -1.12395
   D10       -3.12058  -0.00047   0.04593   0.02784   0.07393  -3.04665
   D11       -1.01189  -0.00037   0.02120   0.01863   0.03846  -0.97343
   D12        0.96934   0.00059  -0.00388   0.01039   0.00491   0.97425
   D13       -1.05137  -0.00027   0.01366   0.01557   0.02915  -1.02222
   D14        1.05732  -0.00017  -0.01107   0.00635  -0.00632   1.05100
   D15        3.03856   0.00079  -0.03615  -0.00188  -0.03987   2.99869
   D16        2.89175   0.00651   0.07161   0.11832   0.19005   3.08180
   D17        0.00823   0.00186  -0.00223   0.00919   0.00669   0.01493
   D18       -0.25207   0.00524   0.02050   0.06829   0.08906  -0.16301
   D19       -3.13559   0.00060  -0.05334  -0.04084  -0.09430   3.05330
   D20       -1.47573  -0.00093  -0.10735  -0.11117  -0.22047  -1.69620
   D21        2.89140  -0.00378  -0.10496  -0.12238  -0.22531   2.66609
   D22        0.62493  -0.00400  -0.04358  -0.09671  -0.14032   0.48461
   D23        1.41374   0.00338  -0.03420  -0.00513  -0.04131   1.37243
   D24       -0.50231   0.00053  -0.03182  -0.01633  -0.04615  -0.54847
   D25       -2.76878   0.00031   0.02957   0.00933   0.03884  -2.72995
         Item               Value     Threshold  Converged?
 Maximum Force            0.051470     0.000450     NO 
 RMS     Force            0.007537     0.000300     NO 
 Maximum Displacement     0.919615     0.001800     NO 
 RMS     Displacement     0.207768     0.001200     NO 
 Predicted change in Energy=-6.782475D-03
 GradGradGradGradGradGradGradGradGradGradGradGradGradGradGradGradGradGrad

                          Input orientation:                          
 ---------------------------------------------------------------------
 Center     Atomic      Atomic             Coordinates (Angstroms)
 Number     Number       Type             X           Y           Z
 ---------------------------------------------------------------------
      1          6           0       -1.247904    0.853599   -0.195830
      2          6           0       -1.788506   -0.446616    0.258095
      3          8           0       -1.835714   -1.466344   -0.412229
      4          6           0        2.031858   -0.761118    0.250774
      5          6           0        1.453734    0.300496   -0.331938
      6          6           0        0.382805    1.146820    0.234318
      7          1           0       -1.725677    1.695743    0.304338
      8          1           0       -1.245674    0.960943   -1.272130
      9          1           0       -2.284203   -0.423135    1.257124
     10          1           0        2.776059   -1.360792   -0.260587
     11          1           0        1.854800   -1.013717    1.285150
     12          1           0        1.744320    0.542441   -1.354786
     13          1           0        0.413396    2.158949   -0.167987
     14          1           0        0.371265    1.190389    1.319188
 ---------------------------------------------------------------------
                    Distance matrix (angstroms):
                    1          2          3          4          5
     1  C    0.000000
     2  C    1.479479   0.000000
     3  O    2.403016   1.221232   0.000000
     4  C    3.682880   3.833295   3.986858   0.000000
     5  C    2.761031   3.379118   3.734788   1.341941   0.000000
     6  C    1.711788   2.693362   3.488335   2.521879   1.477768
     7  H    1.089789   2.143779   3.244128   4.489778   3.529902
     8  H    1.081642   2.148832   2.641836   4.003367   2.933761
     9  H    2.194320   1.115493   2.018952   4.444700   4.125643
    10  H    4.593474   4.684016   4.615473   1.083944   2.124504
    11  H    3.912408   3.827548   4.087281   1.079394   2.122023
    12  H    3.223879   4.007553   4.211921   2.088005   1.090502
    13  H    2.112967   3.437861   4.273277   3.364754   2.136124
    14  H    2.242859   2.910381   3.863521   2.776231   2.165609
                    6          7          8          9         10
     6  C    0.000000
     7  H    2.179889   0.000000
     8  H    2.226181   1.804324   0.000000
     9  H    3.259421   2.389434   3.064529   0.000000
    10  H    3.501530   5.470574   4.752684   5.365529   0.000000
    11  H    2.817612   4.595974   4.477935   4.181018   1.832617
    12  H    2.178129   4.015429   3.020271   4.897285   2.425707
    13  H    1.089582   2.239037   2.325266   3.996891   4.240204
    14  H    1.085805   2.383793   3.063016   3.107864   3.845420
                   11         12         13         14
    11  H    0.000000
    12  H    3.066447   0.000000
    13  H    3.775587   2.406853   0.000000
    14  H    2.657088   3.074939   1.775267   0.000000
 Stoichiometry    C5H8O
 Framework group  C1[X(C5H8O)]
 Deg. of freedom    36
 Full point group                 C1      NOp   1
 Largest Abelian subgroup         C1      NOp   1
 Largest concise Abelian subgroup C1      NOp   1
                         Standard orientation:                         
 ---------------------------------------------------------------------
 Center     Atomic      Atomic             Coordinates (Angstroms)
 Number     Number       Type             X           Y           Z
 ---------------------------------------------------------------------
      1          6           0       -0.959857    1.013036   -0.170768
      2          6           0       -1.649844   -0.194245    0.334453
      3          8           0       -1.849888   -1.215012   -0.305410
      4          6           0        2.095403   -1.004240    0.228708
      5          6           0        1.641680    0.109293   -0.367098
      6          6           0        0.707828    1.101454    0.205034
      7          1           0       -1.308476    1.922122    0.318792
      8          1           0       -0.977622    1.093132   -1.249295
      9          1           0       -2.106616   -0.082201    1.345952
     10          1           0        2.739141   -1.708004   -0.286320
     11          1           0        1.919757   -1.206528    1.274326
     12          1           0        1.928822    0.286498   -1.404085
     13          1           0        0.856648    2.090934   -0.226208
     14          1           0        0.736193    1.172359    1.288151
 ---------------------------------------------------------------------
 Rotational constants (GHZ):           5.4508691           2.2166159           1.7360965
 Standard basis: 6-31G(d) (6D, 7F)
 There are   106 symmetry adapted cartesian basis functions of A   symmetry.
 There are   106 symmetry adapted basis functions of A   symmetry.
   106 basis functions,   200 primitive gaussians,   106 cartesian basis functions
    23 alpha electrons       23 beta electrons
       nuclear repulsion energy       214.4796970564 Hartrees.
 NAtoms=   14 NActive=   14 NUniq=   14 SFac= 1.00D+00 NAtFMM=   60 NAOKFM=F Big=F
 Integral buffers will be    131072 words long.
 Raffenetti 2 integral format.
 Two-electron integral symmetry is turned on.
 One-electron integrals computed using PRISM.
 NBasis=   106 RedAO= T EigKep=  4.69D-03  NBF=   106
 NBsUse=   106 1.00D-06 EigRej= -1.00D+00 NBFU=   106
 Initial guess from the checkpoint file:  "/home/rpaton/Gau-110414.chk"
 B after Tr=     0.000000   -0.000000   -0.000000
         Rot=    0.999820    0.002362   -0.008867    0.016598 Ang=   2.17 deg.
 ExpMin= 1.61D-01 ExpMax= 5.48D+03 ExpMxC= 8.25D+02 IAcc=3 IRadAn=         5 AccDes= 0.00D+00
 Harris functional with IExCor=  402 and IRadAn=       5 diagonalized for initial guess.
 HarFok:  IExCor=  402 AccDes= 0.00D+00 IRadAn=         5 IDoV= 1 UseB2=F ITyADJ=14
 ICtDFT=  3500011 ScaDFX=  1.000000  1.000000  1.000000  1.000000
 FoFCou: FMM=F IPFlag=           0 FMFlag=      100000 FMFlg1=           0
         NFxFlg=           0 DoJE=T BraDBF=F KetDBF=T FulRan=T
         wScrn=  0.000000 ICntrl=       500 IOpCl=  0 I1Cent=   200000004 NGrid=           0
         NMat0=    1 NMatS0=      1 NMatT0=    0 NMatD0=    1 NMtDS0=    0 NMtDT0=    0
 Petite list used in FoFCou.
 Keep R1 ints in memory in canonical form, NReq=19808022.
 Requested convergence on RMS density matrix=1.00D-08 within 128 cycles.
 Requested convergence on MAX density matrix=1.00D-06.
 Requested convergence on             energy=1.00D-06.
 No special actions if energy rises.
 Integral accuracy reduced to 1.0D-05 until final iterations.
 Initial convergence to 1.0D-05 achieved.  Increase integral accuracy.
 SCF Done:  E(RB3LYP) =  -270.515564559     A.U. after   15 cycles
            NFock= 15  Conv=0.95D-08     -V/T= 2.0099
 Calling FoFJK, ICntrl=      2127 FMM=F ISym2X=0 I1Cent= 0 IOpClX= 0 NMat=1 NMatS=1 NMatT=0.
 ***** Axes restored to original set *****
 -------------------------------------------------------------------
 Center     Atomic                   Forces (Hartrees/Bohr)
 Number     Number              X              Y              Z
 -------------------------------------------------------------------
      1        6           0.052358514    0.008122492    0.008541144
      2        6          -0.017485256   -0.013876159   -0.006450328
      3        8           0.006249150    0.009517357    0.006270312
      4        6           0.001286887    0.012366107   -0.002068732
      5        6           0.000154767   -0.016246814   -0.007562228
      6        6          -0.044236720    0.003769000   -0.004233637
      7        1          -0.007436278   -0.000081854   -0.002039666
      8        1          -0.006825541   -0.001982605   -0.007308004
      9        1           0.006024594   -0.001620860    0.002506426
     10        1           0.001404522    0.000445186   -0.001598161
     11        1          -0.005137678   -0.003595712    0.005012089
     12        1          -0.001438908   -0.001510136   -0.001186152
     13        1           0.010257926    0.005172447    0.004318097
     14        1           0.004824022   -0.000478449    0.005798840
 -------------------------------------------------------------------
 Cartesian Forces:  Max     0.052358514 RMS     0.012487610

 GradGradGradGradGradGradGradGradGradGradGradGradGradGradGradGradGradGrad
 Berny optimization.
 Using GEDIIS/GDIIS optimizer.
 FormGI is forming the generalized inverse of G from B-inverse, IUseBI=4.
 Internal  Forces:  Max     0.031723063 RMS     0.006953020
 Search for a local minimum.
 Step number   3 out of a maximum of   69
 All quantities printed in internal units (Hartrees-Bohrs-Radians)
 Mixed Optimization -- RFO/linear search
 Update second derivatives using D2CorX and points    2    3
 DE= -1.41D-02 DEPred=-6.78D-03 R= 2.07D+00
 TightC=F SS=  1.41D+00  RLast= 6.96D-01 DXNew= 5.0454D-01 2.0871D+00
 Trust test= 2.07D+00 RLast= 6.96D-01 DXMaxT set to 5.05D-01
 ITU=  1  0  0
 Use linear search instead of GDIIS.
     Eigenvalues ---    0.00230   0.00907   0.01231   0.01525   0.02130
     Eigenvalues ---    0.02925   0.03084   0.03434   0.03983   0.05037
     Eigenvalues ---    0.05691   0.07508   0.09745   0.12261   0.13007
     Eigenvalues ---    0.13653   0.15970   0.15992   0.16004   0.16014
     Eigenvalues ---    0.21881   0.22023   0.22173   0.31574   0.32197
     Eigenvalues ---    0.32495   0.32542   0.34341   0.34650   0.34790
     Eigenvalues ---    0.34816   0.35032   0.36627   0.37888   0.58514
     Eigenvalues ---    1.03434
 RFO step:  Lambda=-1.50802447D-02 EMin= 2.30318988D-03
 Quartic linear search produced a step of  0.26625.
 Iteration  1 RMS(Cart)=  0.07294570 RMS(Int)=  0.01530145
 Iteration  2 RMS(Cart)=  0.02613057 RMS(Int)=  0.00217511
 Iteration  3 RMS(Cart)=  0.00005142 RMS(Int)=  0.00217459
 Iteration  4 RMS(Cart)=  0.00000015 RMS(Int)=  0.00217459
 Variable       Old X    -DE/DX   Delta X   Delta X   Delta X     New X
                                 (Linear)    (Quad)   (Total)
    R1        2.79581   0.00787   0.00514   0.02084   0.02598   2.82179
    R2        3.23481  -0.03172  -0.09207  -0.21784  -0.30991   2.92490
    R3        2.05940   0.00226  -0.00011   0.00618   0.00607   2.06548
    R4        2.04401   0.00706  -0.00839   0.01571   0.00733   2.05133
    R5        2.30779  -0.01163   0.00333  -0.00595  -0.00262   2.30517
    R6        2.10798  -0.00047  -0.00120  -0.00198  -0.00317   2.10480
    R7        2.53590  -0.00776   0.00033  -0.00952  -0.00919   2.52672
    R8        2.04836   0.00147  -0.00126   0.00259   0.00132   2.04968
    R9        2.03976   0.00649  -0.00791   0.01222   0.00431   2.04407
   R10        2.79258   0.00503   0.00434   0.01754   0.02189   2.81446
   R11        2.06075   0.00039   0.00025   0.00065   0.00090   2.06165
   R12        2.05901   0.00350  -0.00039   0.00938   0.00899   2.06800
   R13        2.05188   0.00572  -0.00625   0.01292   0.00667   2.05854
    A1        2.00593  -0.01114   0.03039   0.03916   0.06874   2.07467
    A2        1.95856  -0.00045  -0.01147  -0.04391  -0.05715   1.90141
    A3        1.97498  -0.00205  -0.00006  -0.04038  -0.04635   1.92863
    A4        1.74157   0.00815  -0.01139   0.03048   0.02110   1.76267
    A5        1.80399   0.00920   0.00356   0.05782   0.06048   1.86447
    A6        1.96157  -0.00232  -0.00836  -0.02601  -0.03815   1.92342
    A7        2.18896  -0.00364   0.00337   0.00151  -0.00170   2.18726
    A8        2.00276   0.00241   0.00107   0.01399   0.00848   2.01124
    A9        2.08516   0.00199  -0.00486   0.00949  -0.00196   2.08320
   A10        2.12774  -0.00137  -0.00420  -0.00755  -0.01219   2.11555
   A11        2.13009   0.00005   0.00206   0.00423   0.00587   2.13595
   A12        2.02110   0.00158   0.00100   0.00746   0.00803   2.02913
   A13        2.21290  -0.00579   0.00949  -0.00446   0.00237   2.21528
   A14        2.05784   0.00266  -0.00114   0.00572   0.00191   2.05974
   A15        2.01026   0.00318  -0.00180   0.00201  -0.00245   2.00781
   A16        2.08976  -0.02137   0.02121  -0.00835   0.01292   2.10267
   A17        1.66401   0.01522  -0.00186   0.07571   0.07432   1.73833
   A18        1.82122   0.01075   0.00100   0.04243   0.04296   1.86419
   A19        1.94998  -0.00057  -0.01410  -0.03116  -0.04691   1.90307
   A20        1.99713   0.00193   0.00166  -0.03475  -0.03506   1.96207
   A21        1.90915  -0.00351  -0.00813  -0.02720  -0.03928   1.86987
    D1       -1.67040   0.00341  -0.06152   0.05438  -0.00730  -1.67770
    D2        1.59289  -0.00404  -0.00149  -0.18681  -0.18824   1.40465
    D3        2.63885   0.00046  -0.05969   0.02017  -0.03701   2.60184
    D4       -0.38104  -0.00698   0.00034  -0.22103  -0.21795  -0.59899
    D5        0.39649   0.00584  -0.03676   0.12931   0.08986   0.48635
    D6       -2.62341  -0.00161   0.02327  -0.11189  -0.09108  -2.71449
    D7        1.13833  -0.00249   0.02563   0.00998   0.03657   1.17490
    D8       -3.07164  -0.00148   0.01618   0.02149   0.03865  -3.03298
    D9       -1.12395   0.00175   0.00725   0.02508   0.03352  -1.09043
   D10       -3.04665  -0.00307   0.01968  -0.00478   0.01521  -3.03144
   D11       -0.97343  -0.00205   0.01024   0.00673   0.01729  -0.95614
   D12        0.97425   0.00118   0.00131   0.01032   0.01216   0.98642
   D13       -1.02222   0.00012   0.00776  -0.00429   0.00197  -1.02025
   D14        1.05100   0.00113  -0.00168   0.00723   0.00405   1.05505
   D15        2.99869   0.00436  -0.01061   0.01082  -0.00108   2.99761
   D16        3.08180   0.00116   0.05060   0.04199   0.09263  -3.10876
   D17        0.01493   0.00019   0.00178  -0.01407  -0.01237   0.00256
   D18       -0.16301   0.00445   0.02371   0.09248   0.11627  -0.04675
   D19        3.05330   0.00349  -0.02511   0.03642   0.01127   3.06457
   D20       -1.69620   0.00160  -0.05870  -0.07920  -0.13826  -1.83446
   D21        2.66609  -0.00445  -0.05999  -0.14992  -0.20813   2.45795
   D22        0.48461  -0.00076  -0.03736  -0.05898  -0.09757   0.38704
   D23        1.37243   0.00253  -0.01100  -0.02432  -0.03580   1.33663
   D24       -0.54847  -0.00352  -0.01229  -0.09503  -0.10567  -0.65414
   D25       -2.72995   0.00018   0.01034  -0.00409   0.00490  -2.72505
         Item               Value     Threshold  Converged?
 Maximum Force            0.031723     0.000450     NO 
 RMS     Force            0.006953     0.000300     NO 
 Maximum Displacement     0.196105     0.001800     NO 
 RMS     Displacement     0.074056     0.001200     NO 
 Predicted change in Energy=-1.061999D-02
 GradGradGradGradGradGradGradGradGradGradGradGradGradGradGradGradGradGrad

                          Input orientation:                          
 ---------------------------------------------------------------------
 Center     Atomic      Atomic             Coordinates (Angstroms)
 Number     Number       Type             X           Y           Z
 ---------------------------------------------------------------------
      1          6           0       -1.168799    0.854427   -0.189745
      2          6           0       -1.836419   -0.412787    0.232376
      3          8           0       -1.939489   -1.417433   -0.451793
      4          6           0        2.059787   -0.727382    0.269617
      5          6           0        1.392607    0.250410   -0.352136
      6          6           0        0.305210    1.093997    0.217153
      7          1           0       -1.660815    1.696251    0.304127
      8          1           0       -1.219965    0.970261   -1.267853
      9          1           0       -2.211384   -0.425461    1.281099
     10          1           0        2.860031   -1.265591   -0.226765
     11          1           0        1.886630   -0.977657    1.307594
     12          1           0        1.674954    0.491459   -1.378006
     13          1           0        0.427791    2.121847   -0.137913
     14          1           0        0.330419    1.125319    1.305745
 ---------------------------------------------------------------------
                    Distance matrix (angstroms):
                    1          2          3          4          5
     1  C    0.000000
     2  C    1.493230   0.000000
     3  O    2.413293   1.219846   0.000000
     4  C    3.624486   3.909063   4.121991   0.000000
     5  C    2.636666   3.347849   3.727532   1.337080   0.000000
     6  C    1.547793   2.618626   3.434158   2.529568   1.489349
     7  H    1.093003   2.117552   3.216225   4.440503   3.441587
     8  H    1.085519   2.131554   2.623881   4.000322   2.860463
     9  H    2.210991   1.113814   2.015155   4.399677   4.014102
    10  H    4.552726   4.795281   4.807191   1.084644   2.113601
    11  H    3.864480   3.916154   4.234151   1.081674   2.122949
    12  H    3.103327   3.967459   4.191174   2.085265   1.090978
    13  H    2.039152   3.418791   4.269548   3.308716   2.116374
    14  H    2.134836   2.865847   3.834972   2.738025   2.154595
                    6          7          8          9         10
     6  C    0.000000
     7  H    2.058040   0.000000
     8  H    2.132302   1.786765   0.000000
     9  H    3.126337   2.399847   3.070523   0.000000
    10  H    3.505970   5.430690   4.767522   5.357119   0.000000
    11  H    2.825190   4.554239   4.480875   4.135135   1.839748
    12  H    2.187186   3.925360   2.936314   4.797417   2.411844
    13  H    1.094337   2.176880   2.306082   3.932890   4.171142
    14  H    1.089334   2.300915   3.008510   2.977632   3.803153
                   11         12         13         14
    11  H    0.000000
    12  H    3.068479   0.000000
    13  H    3.718148   2.398210   0.000000
    14  H    2.616162   3.067910   1.756900   0.000000
 Stoichiometry    C5H8O
 Framework group  C1[X(C5H8O)]
 Deg. of freedom    36
 Full point group                 C1      NOp   1
 Largest Abelian subgroup         C1      NOp   1
 Largest concise Abelian subgroup C1      NOp   1
                         Standard orientation:                         
 ---------------------------------------------------------------------
 Center     Atomic      Atomic             Coordinates (Angstroms)
 Number     Number       Type             X           Y           Z
 ---------------------------------------------------------------------
      1          6           0       -0.868232    0.987948   -0.153914
      2          6           0       -1.664451   -0.175485    0.338216
      3          8           0       -1.916006   -1.180741   -0.305372
      4          6           0        2.164043   -0.958596    0.237462
      5          6           0        1.593159    0.073309   -0.392655
      6          6           0        0.639740    1.059502    0.187499
      7          1           0       -1.234497    1.897934    0.328199
      8          1           0       -0.950685    1.076017   -1.232708
      9          1           0       -1.993555   -0.110467    1.400310
     10          1           0        2.872314   -1.604774   -0.269744
     11          1           0        2.006183   -1.154099    1.289545
     12          1           0        1.858729    0.246798   -1.436497
     13          1           0        0.869489    2.053550   -0.208302
     14          1           0        0.714524    1.120903    1.272526
 ---------------------------------------------------------------------
 Rotational constants (GHZ):           5.7441570           2.1834389           1.7479661
 Standard basis: 6-31G(d) (6D, 7F)
 There are   106 symmetry adapted cartesian basis functions of A   symmetry.
 There are   106 symmetry adapted basis functions of A   symmetry.
   106 basis functions,   200 primitive gaussians,   106 cartesian basis functions
    23 alpha electrons       23 beta electrons
       nuclear repulsion energy       216.4385108238 Hartrees.
 NAtoms=   14 NActive=   14 NUniq=   14 SFac= 1.00D+00 NAtFMM=   60 NAOKFM=F Big=F
 Integral buffers will be    131072 words long.
 Raffenetti 2 integral format.
 Two-electron integral symmetry is turned on.
 One-electron integrals computed using PRISM.
 NBasis=   106 RedAO= T EigKep=  4.46D-03  NBF=   106
 NBsUse=   106 1.00D-06 EigRej= -1.00D+00 NBFU=   106
 Initial guess from the checkpoint file:  "/home/rpaton/Gau-110414.chk"
 B after Tr=    -0.000000    0.000000   -0.000000
         Rot=    0.999992    0.001519   -0.003502    0.000901 Ang=   0.45 deg.
 ExpMin= 1.61D-01 ExpMax= 5.48D+03 ExpMxC= 8.25D+02 IAcc=3 IRadAn=         5 AccDes= 0.00D+00
 Harris functional with IExCor=  402 and IRadAn=       5 diagonalized for initial guess.
 HarFok:  IExCor=  402 AccDes= 0.00D+00 IRadAn=         5 IDoV= 1 UseB2=F ITyADJ=14
 ICtDFT=  3500011 ScaDFX=  1.000000  1.000000  1.000000  1.000000
 FoFCou: FMM=F IPFlag=           0 FMFlag=      100000 FMFlg1=           0
         NFxFlg=           0 DoJE=T BraDBF=F KetDBF=T FulRan=T
         wScrn=  0.000000 ICntrl=       500 IOpCl=  0 I1Cent=   200000004 NGrid=           0
         NMat0=    1 NMatS0=      1 NMatT0=    0 NMatD0=    1 NMtDS0=    0 NMtDT0=    0
 Petite list used in FoFCou.
 Keep R1 ints in memory in canonical form, NReq=19808022.
 Requested convergence on RMS density matrix=1.00D-08 within 128 cycles.
 Requested convergence on MAX density matrix=1.00D-06.
 Requested convergence on             energy=1.00D-06.
 No special actions if energy rises.
 Integral accuracy reduced to 1.0D-05 until final iterations.
 Initial convergence to 1.0D-05 achieved.  Increase integral accuracy.
 SCF Done:  E(RB3LYP) =  -270.524157209     A.U. after   13 cycles
            NFock= 13  Conv=0.41D-08     -V/T= 2.0093
 Calling FoFJK, ICntrl=      2127 FMM=F ISym2X=0 I1Cent= 0 IOpClX= 0 NMat=1 NMatS=1 NMatT=0.
 ***** Axes restored to original set *****
 -------------------------------------------------------------------
 Center     Atomic                   Forces (Hartrees/Bohr)
 Number     Number              X              Y              Z
 -------------------------------------------------------------------
      1        6           0.002080484    0.006858759   -0.004904543
      2        6           0.005264341   -0.021446349    0.000617013
      3        8          -0.000302072    0.012162907    0.003682675
      4        6           0.000412313    0.008077318   -0.002331035
      5        6           0.003554717   -0.009077463   -0.004891659
      6        6          -0.003503852    0.006601309    0.006686610
      7        1          -0.009850614    0.000795465   -0.003682204
      8        1          -0.006225740   -0.001404937   -0.006767808
      9        1          -0.000819033    0.001336002    0.000290546
     10        1           0.000255538   -0.001181804   -0.000856384
     11        1          -0.003084340   -0.002270173    0.003853931
     12        1          -0.002002061   -0.002259045   -0.001401252
     13        1           0.008629772    0.003327638    0.004015254
     14        1           0.005590545   -0.001519627    0.005688856
 -------------------------------------------------------------------
 Cartesian Forces:  Max     0.021446349 RMS     0.005827111

 GradGradGradGradGradGradGradGradGradGradGradGradGradGradGradGradGradGrad
 Berny optimization.
 Using GEDIIS/GDIIS optimizer.
 FormGI is forming the generalized inverse of G from B-inverse, IUseBI=4.
 Internal  Forces:  Max     0.019134305 RMS     0.005868083
 Search for a local minimum.
 Step number   4 out of a maximum of   69
 All quantities printed in internal units (Hartrees-Bohrs-Radians)
 Mixed Optimization -- RFO/linear search
 Update second derivatives using D2CorX and points    3    4
 DE= -8.59D-03 DEPred=-1.06D-02 R= 8.09D-01
 TightC=F SS=  1.41D+00  RLast= 5.82D-01 DXNew= 8.4853D-01 1.7448D+00
 Trust test= 8.09D-01 RLast= 5.82D-01 DXMaxT set to 8.49D-01
 ITU=  1  1  0  0
 Use linear search instead of GDIIS.
     Eigenvalues ---    0.00231   0.01050   0.01233   0.01986   0.02213
     Eigenvalues ---    0.02909   0.03088   0.03506   0.03818   0.05154
     Eigenvalues ---    0.05638   0.07558   0.10322   0.13421   0.13648
     Eigenvalues ---    0.15938   0.15952   0.15995   0.16000   0.16653
     Eigenvalues ---    0.21532   0.21996   0.22123   0.22840   0.31620
     Eigenvalues ---    0.32321   0.32532   0.34127   0.34650   0.34780
     Eigenvalues ---    0.34843   0.35169   0.35758   0.36736   0.57998
     Eigenvalues ---    1.02360
 RFO step:  Lambda=-1.33764481D-02 EMin= 2.30751542D-03
 Quartic linear search produced a step of -0.06923.
 Iteration  1 RMS(Cart)=  0.12931607 RMS(Int)=  0.00589934
 Iteration  2 RMS(Cart)=  0.00702104 RMS(Int)=  0.00222813
 Iteration  3 RMS(Cart)=  0.00001943 RMS(Int)=  0.00222808
 Iteration  4 RMS(Cart)=  0.00000005 RMS(Int)=  0.00222808
 Variable       Old X    -DE/DX   Delta X   Delta X   Delta X     New X
                                 (Linear)    (Quad)   (Total)
    R1        2.82179   0.00619  -0.00180   0.02402   0.02222   2.84401
    R2        2.92490   0.01248   0.02145  -0.01291   0.00854   2.93345
    R3        2.06548   0.00338  -0.00042   0.01224   0.01182   2.07730
    R4        2.05133   0.00687  -0.00051   0.03610   0.03559   2.08693
    R5        2.30517  -0.01206   0.00018  -0.01902  -0.01883   2.28634
    R6        2.10480   0.00053   0.00022   0.00122   0.00144   2.10624
    R7        2.52672  -0.00428   0.00064  -0.01424  -0.01360   2.51311
    R8        2.04968   0.00117  -0.00009   0.00599   0.00590   2.05558
    R9        2.04407   0.00472  -0.00030   0.02852   0.02822   2.07229
   R10        2.81446   0.00532  -0.00152   0.01854   0.01703   2.83149
   R11        2.06165   0.00030  -0.00006   0.00113   0.00107   2.06272
   R12        2.06800   0.00279  -0.00062   0.01324   0.01261   2.08061
   R13        2.05854   0.00577  -0.00046   0.02919   0.02873   2.08727
    A1        2.07467  -0.01906  -0.00476  -0.09229  -0.09522   1.97945
    A2        1.90141   0.00051   0.00396  -0.01756  -0.01006   1.89135
    A3        1.92863   0.00098   0.00321  -0.03888  -0.03366   1.89497
    A4        1.76267   0.01248  -0.00146   0.10875   0.10530   1.86797
    A5        1.86447   0.01046  -0.00419   0.08629   0.07833   1.94279
    A6        1.92342  -0.00445   0.00264  -0.03572  -0.03908   1.88433
    A7        2.18726  -0.00335   0.00012  -0.02192  -0.02336   2.16390
    A8        2.01124   0.00067  -0.00059   0.00754   0.00540   2.01664
    A9        2.08320   0.00280   0.00014   0.01950   0.01808   2.10128
   A10        2.11555   0.00054   0.00084   0.00103   0.00108   2.11664
   A11        2.13595  -0.00092  -0.00041  -0.00404  -0.00523   2.13072
   A12        2.02913   0.00057  -0.00056   0.00804   0.00670   2.03583
   A13        2.21528  -0.00557  -0.00016  -0.03704  -0.03716   2.17811
   A14        2.05974   0.00257  -0.00013   0.01612   0.01604   2.07578
   A15        2.00781   0.00301   0.00017   0.02027   0.02049   2.02830
   A16        2.10267  -0.01913  -0.00089  -0.11712  -0.11688   1.98579
   A17        1.73833   0.01260  -0.00514   0.13244   0.12643   1.86476
   A18        1.86419   0.01054  -0.00297   0.07220   0.06354   1.92773
   A19        1.90307   0.00061   0.00325  -0.00329   0.00525   1.90833
   A20        1.96207   0.00101   0.00243  -0.03457  -0.03175   1.93032
   A21        1.86987  -0.00356   0.00272  -0.02707  -0.02997   1.83990
    D1       -1.67770  -0.00028   0.00051  -0.07929  -0.07954  -1.75724
    D2        1.40465   0.00222   0.01303   0.02363   0.03586   1.44051
    D3        2.60184  -0.00491   0.00256  -0.14942  -0.14734   2.45451
    D4       -0.59899  -0.00241   0.01509  -0.04649  -0.03194  -0.63093
    D5        0.48635  -0.00035  -0.00622  -0.06943  -0.07434   0.41201
    D6       -2.71449   0.00216   0.00631   0.03350   0.04106  -2.67343
    D7        1.17490  -0.00307  -0.00253  -0.04576  -0.04742   1.12748
    D8       -3.03298  -0.00256  -0.00268  -0.00924  -0.01503  -3.04801
    D9       -1.09043   0.00164  -0.00232   0.03464   0.03497  -1.05546
   D10       -3.03144  -0.00327  -0.00105  -0.03630  -0.03941  -3.07085
   D11       -0.95614  -0.00276  -0.00120   0.00023  -0.00702  -0.96315
   D12        0.98642   0.00144  -0.00084   0.04411   0.04298   1.02940
   D13       -1.02025   0.00087  -0.00014   0.00140   0.00466  -1.01559
   D14        1.05505   0.00138  -0.00028   0.03793   0.03705   1.09210
   D15        2.99761   0.00558   0.00007   0.08180   0.08705   3.08466
   D16       -3.10876  -0.00124  -0.00641   0.01380   0.00738  -3.10138
   D17        0.00256  -0.00033   0.00086  -0.01315  -0.01228  -0.00972
   D18       -0.04675   0.00177  -0.00805   0.09237   0.08431   0.03757
   D19        3.06457   0.00268  -0.00078   0.06542   0.06466   3.12923
   D20       -1.83446   0.00180   0.00957  -0.02842  -0.02024  -1.85471
   D21        2.45795  -0.00313   0.01441  -0.12629  -0.11257   2.34538
   D22        0.38704   0.00028   0.00675  -0.06901  -0.06019   0.32685
   D23        1.33663   0.00092   0.00248  -0.00213  -0.00103   1.33560
   D24       -0.65414  -0.00402   0.00732  -0.10001  -0.09336  -0.74750
   D25       -2.72505  -0.00060  -0.00034  -0.04272  -0.04099  -2.76603
         Item               Value     Threshold  Converged?
 Maximum Force            0.019134     0.000450     NO 
 RMS     Force            0.005868     0.000300     NO 
 Maximum Displacement     0.417903     0.001800     NO 
 RMS     Displacement     0.128564     0.001200     NO 
 Predicted change in Energy=-7.834766D-03
 GradGradGradGradGradGradGradGradGradGradGradGradGradGradGradGradGradGrad

                          Input orientation:                          
 ---------------------------------------------------------------------
 Center     Atomic      Atomic             Coordinates (Angstroms)
 Number     Number       Type             X           Y           Z
 ---------------------------------------------------------------------
      1          6           0       -1.147619    0.893046   -0.204765
      2          6           0       -1.658191   -0.449539    0.244418
      3          8           0       -1.718344   -1.423852   -0.470357
      4          6           0        1.939099   -0.730548    0.273081
      5          6           0        1.320755    0.253503   -0.373356
      6          6           0        0.312533    1.177600    0.238701
      7          1           0       -1.778585    1.672116    0.246129
      8          1           0       -1.254390    0.960920   -1.301849
      9          1           0       -2.042880   -0.492318    1.289627
     10          1           0        2.690096   -1.344862   -0.218704
     11          1           0        1.723516   -0.963605    1.322726
     12          1           0        1.583696    0.448326   -1.414690
     13          1           0        0.539914    2.213264   -0.057823
     14          1           0        0.390959    1.163607    1.340362
 ---------------------------------------------------------------------
                    Distance matrix (angstroms):
                    1          2          3          4          5
     1  C    0.000000
     2  C    1.504986   0.000000
     3  O    2.400892   1.209879   0.000000
     4  C    3.520259   3.608362   3.796085   0.000000
     5  C    2.555447   3.122504   3.472615   1.329882   0.000000
     6  C    1.552314   2.555654   3.375615   2.507574   1.498359
     7  H    1.099261   2.125069   3.178364   4.426589   3.464410
     8  H    1.104355   2.131523   2.567834   3.942060   2.827351
     9  H    2.225743   1.114575   2.017578   4.116585   3.825677
    10  H    4.442576   4.463595   4.416323   1.087764   2.110399
    11  H    3.744837   3.586496   3.908117   1.096606   2.126091
    12  H    3.020228   3.750817   3.911558   2.089168   1.091545
    13  H    2.147635   3.466055   4.300991   3.276163   2.133058
    14  H    2.197235   2.828842   3.797737   2.669016   2.151659
[...]
 ! A20   A(5,6,14)             109.7569         -DE/DX =    0.0                 !
 ! A21   A(13,6,14)            106.508          -DE/DX =    0.0                 !
 ! D1    D(6,1,2,3)           -134.8772         -DE/DX =    0.0                 !
 ! D2    D(6,1,2,9)             46.1178         -DE/DX =    0.0                 !
 ! D3    D(7,1,2,3)            105.3125         -DE/DX =    0.0                 !
 ! D4    D(7,1,2,9)            -73.6926         -DE/DX =    0.0                 !
 ! D5    D(8,1,2,3)            -10.4664         -DE/DX =    0.0                 !
 ! D6    D(8,1,2,9)            170.5286         -DE/DX =    0.0                 !
 ! D7    D(2,1,6,5)             65.3905         -DE/DX =    0.0                 !
 ! D8    D(2,1,6,13)          -173.0399         -DE/DX =    0.0                 !
 ! D9    D(2,1,6,14)           -57.3286         -DE/DX =    0.0                 !
 ! D10   D(7,1,6,5)           -175.8099         -DE/DX =    0.0                 !
 ! D11   D(7,1,6,13)           -54.2403         -DE/DX =    0.0                 !
 ! D12   D(7,1,6,14)            61.471          -DE/DX =    0.0                 !
 ! D13   D(8,1,6,5)            -57.0901         -DE/DX =    0.0                 !
 ! D14   D(8,1,6,13)            64.4795         -DE/DX =    0.0                 !
 ! D15   D(8,1,6,14)          -179.8092         -DE/DX =    0.0                 !
 ! D16   D(10,4,5,6)           179.733          -DE/DX =    0.0                 !
 ! D17   D(10,4,5,12)            0.4163         -DE/DX =    0.0                 !
 ! D18   D(11,4,5,6)            -0.448          -DE/DX =    0.0                 !
 ! D19   D(11,4,5,12)         -179.7647         -DE/DX =    0.0                 !
 ! D20   D(4,5,6,1)           -121.2746         -DE/DX =    0.0                 !
 ! D21   D(4,5,6,13)           118.1865         -DE/DX =    0.0                 !
 ! D22   D(4,5,6,14)             1.422          -DE/DX =    0.0                 !
 ! D23   D(12,5,6,1)            58.0631         -DE/DX =    0.0                 !
 ! D24   D(12,5,6,13)          -62.4758         -DE/DX =    0.0                 !
 ! D25   D(12,5,6,14)         -179.2403         -DE/DX =    0.0                 !
 --------------------------------------------------------------------------------
 GradGradGradGradGradGradGradGradGradGradGradGradGradGradGradGradGradGrad


 ----------------------------------------------------------------------

 Electric dipole moment (input orientation):
 (Debye = 10**-18 statcoulomb cm , SI units = C m)
                  (au)            (Debye)         (10**-30 SI)
   Tot        0.107467D+01      0.273153D+01      0.911140D+01
   x          0.534102D+00      0.135755D+01      0.452831D+01
   y          0.819716D+00      0.208351D+01      0.694985D+01
   z          0.444644D+00      0.113017D+01      0.376984D+01

 Dipole polarizability, Alpha (input orientation).
 (esu units = cm**3 , SI units = C**2 m**2 J**-1)
 Alpha(0;0):
               (au)            (10**-24 esu)      (10**-40 SI)
   iso        0.532413D+02      0.788955D+01      0.877831D+01
   aniso      0.163532D+02      0.242330D+01      0.269629D+01
   xx         0.552234D+02      0.818326D+01      0.910510D+01
   yx        -0.701848D+01     -0.104003D+01     -0.115719D+01
   yy         0.526528D+02      0.780233D+01      0.868127D+01
   zx         0.564996D+01      0.837237D+00      0.931552D+00
   zy        -0.220305D+01     -0.326458D+00     -0.363234D+00
   zz         0.518479D+02      0.768306D+01      0.854856D+01

 ----------------------------------------------------------------------

 Dipole orientation:
     6         -2.01235952          1.96797645          0.04263179
     6         -2.58996875          0.17600464         -2.11311544
     8         -2.43847721          0.70852126         -4.33202412
     6          3.20289116         -2.27768838          1.25772971
     6          2.22559528          0.04454301          1.22786899
     6         -0.38512363          0.73329613          2.12737073
     1         -3.83389186          2.54900571          0.86382764
     1         -1.11262801          3.66090571         -0.73742608
     1         -3.22264357         -1.74215667         -1.51041195
     1          5.10066565         -2.66065390          0.57411131
     1          2.14349961         -3.88891079          1.97335632
     1          3.35611427          1.60145980          0.48555633
     1         -0.25402559          2.06715391          3.71344590
     1         -1.34463083         -0.95643700          2.85571347

 Electric dipole moment (dipole orientation):
 (Debye = 10**-18 statcoulomb cm , SI units = C m)
                  (au)            (Debye)         (10**-30 SI)
   Tot        0.107467D+01      0.273153D+01      0.911140D+01
   x          0.000000D+00      0.000000D+00      0.000000D+00
   y          0.000000D+00      0.000000D+00      0.000000D+00
   z          0.107467D+01      0.273153D+01      0.911140D+01

 Dipole polarizability, Alpha (dipole orientation).
 (esu units = cm**3 , SI units = C**2 m**2 J**-1)
 Alpha(0;0):
               (au)            (10**-24 esu)      (10**-40 SI)
   iso        0.532413D+02      0.788955D+01      0.877831D+01
   aniso      0.163532D+02      0.242330D+01      0.269629D+01
   xx         0.520891D+02      0.771881D+01      0.858834D+01
   yx        -0.739714D+01     -0.109614D+01     -0.121962D+01
   yy         0.588731D+02      0.872410D+01      0.970687D+01
   zx        -0.649660D+00     -0.962698D-01     -0.107115D+00
   zy        -0.272901D+01     -0.404398D+00     -0.449953D+00
   zz         0.487617D+02      0.722574D+01      0.803972D+01

 ----------------------------------------------------------------------
 Unable to Open any file for archive entry.
 1\1\GINC-DRMAXIMUS\Freq\RB3LYP\6-31G(d)\C5H8O1\RPATON\12-Mar-2023\0\\#
 N Geom=AllCheck Guess=TCheck SCRF=Check GenChk RB3LYP/6-31G(d) Freq\\T
 itle Card Required\\0,1\C,-1.1468776355,0.9155846074,-0.2557686821\C,-
 1.7118158022,-0.4306184835,0.1474525609\O,-2.3047852971,-1.1819216314,
 -0.5931567458\C,2.0527480964,-0.6560865476,0.3523836053\C,1.2885733831
 ,0.1936821285,-0.3344667291\C,0.2872496155,1.1416830648,0.2710829674\H
 ,-1.8088546504,1.68645085,0.1685633912\H,-1.1993172127,1.0002379751,-1
 .3465164571\H,-1.5574309126,-0.6948905512,1.2200458572\H,2.756099921,-
 1.3205623973,-0.1418236381\H,2.0069214495,-0.7186480274,1.4380346132\H
 ,1.3661503353,0.2184685816,-1.4227471485\H,0.5723683694,2.1786456901,0
 .045476766\H,0.2995293402,1.0456327408,1.3649386396\\Version=ES64L-G16
 RevC.01\State=1-A\HF=-270.5334312\RMSD=1.920e-09\RMSF=1.360e-05\ZeroPo
 int=0.1183912\Thermal=0.1254278\ETot=-270.4080034\HTot=-270.4070592\GT
 ot=-270.4466687\Dipole=0.5341019,0.8197164,0.4446435\DipoleDeriv=0.059
 5533,-0.100153,-0.0285294,-0.1521364,-0.2319038,0.0411227,0.0756488,0.
 0581981,0.0692801,0.4489682,0.3388829,0.1979686,0.542896,0.8765264,0.0
 768334,0.0960394,-0.0485278,0.8059057,-0.5245567,-0.2395257,-0.15451,-
 0.3488464,-0.6626348,-0.1589552,-0.1922128,-0.1691701,-0.58363,-0.1951
 116,-0.1148692,-0.0617472,-0.1053979,-0.1600936,0.0190312,-0.0245289,0
 .025955,0.1003078,-0.0336496,-0.1648946,-0.0096272,-0.2308409,0.010990
 6,-0.0285016,-0.1275613,0.0039279,0.1213245,0.1678983,0.059309,0.00721
 94,0.0562753,0.1270927,-0.0130656,0.0120679,0.068916,0.1032546,-0.0834
 449,0.0693027,0.0257145,0.0552892,-0.0294454,-0.0353339,0.0675905,-0.0
 38075,0.0403567,0.0201047,-0.0345751,-0.0059948,-0.028479,0.0415811,-0
 .0032241,-0.0179749,0.0307894,-0.1050391,0.0237027,-0.0063712,-0.05006
 54,-0.0308966,-0.0339514,0.0588181,-0.0167213,0.0881093,-0.2604321,0.0
 213732,0.1074252,0.037513,0.1230209,0.0371089,-0.0234491,0.0522745,-0.
 0429956,0.016303,0.0861417,0.0401394,0.0429295,0.0426003,0.0818723,-0.
 0150636,0.0065056,0.0154153,-0.1042735,0.0605958,0.0479406,0.0000291,0
 .0608332,0.0526337,0.0116313,0.0288119,0.0043478,-0.1225143,-0.0437959
 ,-0.0259971,0.0021179,-0.0113133,-0.1580488,0.0252685,0.0374014,0.0201
 049,0.0630173,-0.0077792,0.023386,-0.0030181,0.0269957,0.0482722,0.044
 8878,0.0026595,-0.0169953,-0.1438607\Polar=55.2233664,-7.0184836,52.65
 27581,5.6499555,-2.2030478,51.8478573\Quadrupole=-1.9732918,-0.026509,
 1.9998008,-3.9434612,-2.1173024,-1.209001\PG=C01 [X(C5H8O1)]\NImag=0\\
 0.44709261,-0.02847094,0.48344510,-0.01445300,0.01131322,0.60168115,-0
 .09338695,-0.02267865,0.01318235,0.40137423,-0.02159211,-0.15414617,0.
 04337961,0.25466353,0.62315640,0.01742030,0.04621223,-0.11484608,0.215
 68630,0.14132651,0.72502544,0.00549758,-0.02948594,-0.01419785,-0.2375
 6308,-0.22424071,-0.21482545,0.22799209,-0.03602241,-0.02990327,-0.028
 63484,-0.22330464,-0.35634749,-0.25288660,0.26647159,0.37725538,-0.006
 16810,-0.01099891,0.01713814,-0.21689155,-0.25586123,-0.36859935,0.251
 63511,0.29683443,0.37839483,0.00019999,0.00129279,0.00128212,0.0000176
 8,0.00087626,-0.00009661,-0.00022622,-0.00048227,-0.00014433,0.4490055
 5,-0.00097627,-0.00100305,-0.00213033,0.00065479,-0.00224634,0.0003463
 8,-0.00001917,0.00127383,0.00038353,-0.35306394,0.47428892,0.00177949,
 -0.00173859,-0.00156591,-0.00071372,-0.00052672,0.00075381,0.00025500,
 0.00035400,-0.00011066,0.03659043,-0.09762669,0.69745703,-0.02785974,0
 .02153675,0.01004313,0.00107414,-0.00099866,0.00064116,-0.00022705,0.0
 0141136,0.00040449,-0.22938843,0.19810550,-0.13188116,0.44050013,0.004
 17895,0.00347458,0.00609431,-0.00140934,0.00293550,-0.00045294,-0.0001
 6481,-0.00133644,-0.00038430,0.19833868,-0.26460201,0.15441456,-0.2986
 2345,0.46648096,-0.00569113,0.00866128,0.00809571,0.00108333,0.0019814
 9,-0.00099784,-0.00045369,-0.00110214,-0.00032983,-0.13310310,0.155273
 88,-0.23899356,0.07598323,-0.12913525,0.68944479,-0.15264968,-0.008390
 16,-0.02808119,-0.01579765,-0.01266969,-0.00391120,0.00079120,0.002360
 12,0.00207808,-0.01166930,0.01807892,0.00645631,-0.13108960,0.05731005
 ,0.03738505,0.43708106,-0.02292097,-0.07233234,-0.00141665,-0.03178814
 ,-0.00209646,-0.01406971,0.00031589,-0.00816433,0.00090560,0.01980768,
 -0.01347652,-0.00737058,0.05772608,-0.13195111,-0.03270261,0.00733768,
 0.54503491,-0.02834534,-0.00008163,-0.09741373,0.00685119,-0.00902991,
 0.00519604,-0.00012599,0.00400814,0.00144279,-0.01012859,0.00974363,0.
 01199057,0.03908880,-0.03591856,-0.11868936,-0.01929630,-0.02871375,0.
 57815472,-0.12795082,0.10338025,0.06018785,0.00877350,-0.00894571,-0.0
 0705878,-0.00336486,-0.00073944,0.00074140,-0.00080888,0.00058290,0.00
 114355,-0.00536506,-0.00217105,-0.00475159,-0.02170431,0.02233938,0.01
 245497,0.14733064,0.11113820,-0.17499058,-0.06932805,0.01877408,-0.022
 33792,-0.01709313,-0.00452666,-0.00141429,0.00312427,-0.00028115,0.000
 53559,0.00001317,-0.00090568,0.00038965,-0.00049714,-0.00457922,0.0046
 6982,0.00272162,-0.11492186,0.18776410,0.05964101,-0.06473284,-0.08651
 801,-0.00737091,0.00489230,0.00370086,0.00082809,-0.00003965,0.0007999
 6,-0.00016149,0.00023701,0.00034250,-0.00142832,-0.00099885,-0.0003283
 4,-0.00927749,0.00791967,0.00384731,-0.06358012,0.07697188,0.08885733,
 -0.05114830,0.00070614,-0.00995203,0.00042154,0.00085475,0.01350430,-0
 .00037467,0.00126703,-0.00133173,-0.00020154,0.00033390,0.00018274,0.0
 0238918,-0.00049444,-0.00131459,-0.00071634,0.00298686,-0.03147595,0.0
 0066187,-0.00267140,0.01938612,0.05349594,0.00054719,-0.04985214,0.017
 26701,0.00101878,-0.00388730,0.03593914,0.00255128,0.00358159,-0.00353
 430,0.00000348,0.00002360,-0.00003920,0.00023091,-0.00013888,0.0007978
 4,0.00001561,-0.00014026,-0.00611640,-0.00148202,0.00274335,-0.0235556
 5,0.00058413,0.05222985,-0.00831136,0.02055970,-0.31283526,-0.00119181
 ,-0.00010786,-0.01224969,-0.00002289,-0.00115753,0.00356900,-0.0001205
 6,0.00020824,0.00029964,0.00098725,-0.00038950,0.00049598,-0.00090932,
 0.00055064,-0.00826567,-0.00013160,0.00123539,-0.01098456,0.01156675,-
 0.02211981,0.33828523,0.01357689,-0.00916031,0.00620865,-0.06114375,0.
 00706966,-0.01445491,0.00803549,-0.00672636,-0.03098849,-0.00015603,0.
 00001631,0.00008958,-0.00015965,0.00018381,-0.00006041,0.00151421,0.00
 257059,0.00014836,-0.00083967,-0.00275213,0.00107363,0.00075530,-0.002
 41954,0.00036455,0.03785028,-0.00382213,0.00018638,0.02892326,0.004641
 64,-0.08627468,0.06351877,-0.01125810,0.01491332,-0.03152760,0.0000019
 2,0.00022612,-0.00005724,0.00014817,-0.00011541,-0.00000420,0.00100443
 ,-0.00006241,0.00130099,0.00140586,0.00166170,-0.00145688,-0.00261654,
 -0.00515715,0.00166635,0.01108506,0.07467016,-0.00594238,0.00269250,-0
 .00672715,-0.01008467,0.07004276,-0.23489517,-0.02300587,-0.01609583,-
 0.03352908,0.00003561,-0.00033861,-0.00020771,-0.00002063,0.00024462,0
 .00037052,-0.00051794,-0.00032503,-0.00038326,0.00051865,0.00231929,-0
 .00072058,-0.00023485,0.00163216,0.00019223,0.03778194,-0.06049046,0.2
 7451380,0.00087901,-0.00106392,-0.00039008,0.00014112,0.00015009,0.000
 06055,-0.00014381,-0.00026999,-0.00013862,-0.16331739,0.12265892,0.085
 90389,-0.00867441,0.01054885,0.01013811,0.00670288,0.00786049,-0.00168
 542,0.00031167,-0.00001332,0.00013289,-0.00006924,-0.00000183,0.000006
 05,-0.00002743,0.00002938,-0.00000727,0.16762280,0.00118339,-0.0018277
 6,-0.00102072,-0.00016625,-0.00066433,0.00011952,0.00004738,0.00023968
 ,0.00006887,0.12236694,-0.15048591,-0.07846626,0.01319249,-0.00946562,
 -0.01116583,0.00693952,0.00674325,0.00349902,0.00077701,0.00010353,0.0
 0024803,0.00002156,0.00001336,0.00007679,-0.00000815,0.00005463,-0.000
 07385,-0.13698658,0.15419135,-0.00010861,0.00005384,0.00044859,-0.0000
 2446,0.00013290,-0.00030864,-0.00000109,-0.00004668,0.00008950,0.08898
 969,-0.08146233,-0.12161604,-0.01308739,0.01238843,0.01106239,-0.00030
 582,0.00193461,-0.00167747,-0.00015390,-0.00004531,-0.00003097,0.00007
 651,-0.00000709,0.00000935,-0.00000029,-0.00003302,0.00008909,-0.09303
 962,0.08476188,0.11930505,-0.00055803,0.00069197,0.00020068,-0.0000483
 4,0.00029839,-0.00039336,0.00009435,-0.00001872,0.00015295,-0.04803889
 ,0.01129743,0.01758943,0.00534200,0.00196346,-0.01912268,-0.00317480,-
 0.00522061,-0.00184953,-0.00023141,-0.00000078,-0.00012429,-0.00000967
 ,0.00000923,0.00004928,-0.00002233,-0.00009794,0.00015158,0.00179708,-
 0.00168104,0.01859487,0.03968064,-0.00032183,0.00069181,0.00014796,0.0
 0000514,0.00038272,-0.00011951,0.00004010,-0.00015431,-0.00002605,0.01
 144225,-0.04792722,0.01229922,-0.00021744,0.00338269,0.02149973,-0.005
 15690,-0.00330513,0.00093365,-0.00022504,-0.00002036,-0.00015011,-0.00
 017220,-0.00004051,-0.00018385,0.00001566,-0.00000650,0.00006942,0.000
 27711,0.00346993,-0.01767216,-0.01469963,0.04043412,-0.00010914,0.0001
 0537,0.00037414,-0.00001987,0.00018794,-0.00057253,0.00001836,-0.00002
 624,0.00023385,0.01508376,0.01501787,-0.33417515,0.00182304,0.00003324
 ,-0.01521451,0.00082750,-0.00175719,0.00094715,-0.00009779,-0.00001679
 ,-0.00001223,0.00020959,-0.00004759,0.00003431,0.00004594,-0.00007537,
 0.00020101,-0.00080714,0.00193590,-0.00950643,-0.01483636,-0.01854149,
 0.35659317,0.00179332,-0.00060291,0.00092558,0.00001088,0.00014883,0.0
 0027614,-0.00002488,-0.00025668,-0.00025234,0.00543948,0.00216396,-0.0
 2019444,-0.05079599,0.00791707,0.02266152,-0.00017487,-0.00038817,0.02
 077103,0.00027726,0.00001392,-0.00036440,-0.00042778,0.00005555,-0.000
 67255,0.00001182,0.00010401,-0.00009731,-0.00336554,-0.00439200,-0.000
 38888,0.00441843,0.00800281,-0.00135863,0.04440544,-0.00048800,0.00029
 057,-0.00019494,0.00009942,0.00001615,0.00017522,0.00007301,0.00004727
 ,-0.00003918,0.00007781,0.00317101,0.02292617,0.00818002,-0.04918593,0
 .00408979,0.00219809,0.00259987,-0.02062830,-0.00012838,-0.00010006,0.
 00014744,0.00024523,0.00012683,0.00040472,-0.00001600,-0.00005224,0.00
 005728,-0.00440557,-0.00320914,-0.00053497,0.00806822,0.00372140,0.002
 56576,-0.01650923,0.04354539,-0.00049221,0.00015842,0.00027629,-0.0000
 5372,-0.00036825,-0.00035462,0.00005078,0.00034001,0.00032614,0.002309
 37,-0.00028840,-0.01496709,0.02052589,0.00698549,-0.32401367,-0.000410
 09,0.00141663,-0.01123554,0.00014318,-0.00002613,0.00026634,0.00076538
 ,0.00000841,0.00038317,-0.00000445,-0.00011111,0.00009282,-0.00057006,
 -0.00029024,0.00129751,-0.00120579,0.00236106,0.00007883,-0.02260121,-
 0.00803732,0.34733422,-0.01421753,-0.03093203,0.00793255,-0.00525625,0
 .00328553,-0.00473788,-0.00040402,-0.00343709,-0.00011571,-0.00141478,
 0.00127505,0.00205435,0.00489882,0.02457848,-0.00651998,-0.05978874,-0
 .06080248,0.01598913,0.00171736,0.00022480,0.00079233,0.00117137,0.000
 35957,-0.00020099,0.00074584,-0.00005363,0.00048670,-0.00194797,-0.001
 06188,-0.00032356,0.00072252,0.00073027,0.00004873,0.00043452,-0.00097
 653,0.00005809,0.07357341,-0.00239923,-0.00416087,0.00099158,-0.000498
 74,0.00147852,-0.00095415,0.00003960,-0.00016485,0.00024480,0.00072218
 ,-0.00048326,-0.00318852,-0.00037036,-0.02134231,0.00550584,-0.0643164
 3,-0.27367099,0.05238337,-0.00006343,0.00090114,0.00012269,-0.00005211
 ,0.00006273,-0.00031796,0.00018349,0.00005265,-0.00006342,0.00152626,0
 .00072136,0.00037474,-0.00072569,-0.00058995,-0.00010765,0.00031847,0.
 00072011,-0.00043329,0.06605605,0.29843959,-0.00712417,-0.01226517,0.0
 0253001,-0.00158221,0.00206695,-0.00097183,-0.00010651,-0.00124247,0.0
 0000824,0.00084821,-0.00051748,-0.00064032,-0.00405427,-0.01387008,0.0
 0440517,0.01692217,0.04957408,-0.06260145,0.00087869,0.00047676,0.0001
 9895,0.00060461,-0.00024086,0.00034761,0.00005261,-0.00063630,0.000313
 13,0.00055492,0.00035935,0.00038668,0.00014748,-0.00002213,0.00021512,
 -0.00033814,0.00065945,0.00028538,-0.01572374,-0.05573268,0.06226947,-
 0.00126836,0.00317695,-0.03288875,0.00138292,0.00109984,-0.00211057,-0
 .00008212,-0.00025250,0.00101883,0.00055876,-0.00110831,0.00074455,-0.
 00064432,-0.00215626,0.02376593,-0.04932408,0.00017574,-0.00239634,0.0
 0119272,0.00050120,0.00045296,-0.00594768,-0.00147234,-0.00141282,-0.0
 0014099,-0.00057212,0.00093645,0.00009123,-0.00023239,-0.00022745,0.00
 002845,0.00027969,-0.00082798,-0.00200209,0.00358190,0.00148487,-0.000
 23455,-0.00042006,0.00892035,0.05639012,-0.00003384,0.00012776,-0.0053
 9143,-0.00001161,0.00003141,-0.00206173,0.00015655,0.00017392,0.000810
 06,-0.00110262,0.00070525,-0.00099334,0.00058432,0.00147433,-0.0232026
 9,-0.00013204,-0.05384829,0.02589814,0.00019153,0.00009434,0.00039496,
 -0.00099292,0.00043493,-0.00042532,-0.00004209,-0.00009657,0.00032918,
 -0.00030990,0.00011566,0.00015517,0.00011570,-0.00003869,0.00072623,0.
 00342436,-0.00169121,-0.00171527,0.00075390,-0.00196387,0.03139058,-0.
 00260134,0.05448104,-0.00209536,0.00006058,-0.01063789,0.00112977,0.00
 188351,-0.00088038,-0.00004801,-0.00030461,0.00056650,-0.00138451,0.00
 115329,0.00143290,0.00097479,0.00098883,-0.01530744,-0.00095974,0.0240
 5427,-0.30131209,-0.00029451,0.00014417,0.00058144,-0.00198685,0.00001
 637,0.00071867,-0.00025670,-0.00101716,0.00069034,-0.00015819,-0.00005
 246,0.00045138,0.00064573,-0.00059573,0.00080328,0.00163364,-0.0015911
 2,0.00023023,0.00025998,0.00117463,-0.00674617,0.00253997,-0.02591455,
 0.32940924\\-0.00000803,-0.00001757,0.00000449,0.00002967,0.00004239,0
 .00003804,-0.00001402,-0.00001905,-0.00002758,-0.00000550,-0.00000194,
 0.00000035,0.00001099,-0.00000564,-0.00002236,-0.00001412,0.00001471,0
 .00001829,0.00000099,0.00000380,-0.00000715,0.00000563,-0.00000102,0.0
 0000427,-0.00000092,-0.00000525,-0.00001399,-0.00000095,-0.00000168,0.
 00000579,0.00000310,0.00000258,-0.00000091,-0.00000068,-0.00000209,0.0
 0000115,-0.00000602,-0.00000677,0.00000090,-0.00000013,-0.00000247,-0.
 00000129\\\@
 The archive entry for this job was punched.


 ... THE UNIVERSE IS NOT ONLY QUEERER THAN WE SUPPOSE,
 BUT QUEERER THAN WE CAN SUPPOSE ... 

                                   -- J. B. S. HALDANE
 Job cpu time:       0 days  0 hours  4 minutes 57.0 seconds.
 Elapsed time:       0 days  0 hours  1 minutes 15.0 seconds.
 File lengths (MBytes):  RWF=     23 Int=      0 D2E=      0 Chk=      2 Scr=      1
 Normal termination of Gaussian 16 at Sun Mar 12 13:43:01 2023.
