Job Start Time: Mon Mar 13 09:31:49 MDT 2023
SLURM Job ID: 16559
SLURM Job Name: DATS_opt
 Entering Gaussian System, Link 0=/opt/apps/Gaussian/G16C/g16/g16
 Initial command:
 /opt/apps/Gaussian/G16C/g16/l1.exe "/tmp/Gau-308818.inp" -scrdir="/tmp/"
 Entering Link 1 = /opt/apps/Gaussian/G16C/g16/l1.exe PID=    308819.
  
 Copyright (c) 1988-2019, Gaussian, Inc.  All Rights Reserved.
  
 This is part of the Gaussian(R) 16 program.  It is based on
 the Gaussian(R) 09 system (copyright 2009, Gaussian, Inc.),
 the Gaussian(R) 03 system (copyright 2003, Gaussian, Inc.),
 the Gaussian(R) 98 system (copyright 1998, Gaussian, Inc.),
 the Gaussian(R) 94 system (copyright 1995, Gaussian, Inc.),
 the Gaussian 92(TM) system (copyright 1992, Gaussian, Inc.),
 the Gaussian 90(TM) system (copyright 1990, Gaussian, Inc.),
 the Gaussian 88(TM) system (copyright 1988, Gaussian, Inc.),
 the Gaussian 86(TM) system (copyright 1986, Carnegie Mellon
 University), and the Gaussian 82(TM) system (copyright 1983,
 Carnegie Mellon University). Gaussian is a federally registered
 trademark of Gaussian, Inc.
  
 This software contains proprietary and confidential information,
 including trade secrets, belonging to Gaussian, Inc.
  
 This software is provided under written license and may be
 used, copied, transmitted, or stored only in accord with that
 written license.
  
 The following legend is applicable only to US Government
 contracts under FAR:
  
                    RESTRICTED RIGHTS LEGEND
  
 Use, reproduction and disclosure by the US Government is
 subject to restrictions as set forth in subparagraphs (a)
 and (c) of the Commercial Computer Software - Restricted
 Rights clause in FAR 52.227-19.
  
 Gaussian, Inc.
 340 Quinnipiac St., Bldg. 40, Wallingford CT 06492
  
  
 ---------------------------------------------------------------
 Warning -- This program may not be used in any manner that
 competes with the business of Gaussian, Inc. or will provide
 assistance to any competitor of Gaussian, Inc.  The licensee
 of this program is prohibited from giving any competitor of
 Gaussian, Inc. access to this program.  By using this program,
 the user acknowledges that Gaussian, Inc. is engaged in the
 business of creating and licensing software in the field of
 computational chemistry and represents and warrants to the
 licensee that it is not a competitor of Gaussian, Inc. and that
 it will not use this program in any manner prohibited above.
 ---------------------------------------------------------------
  

 Cite this work as:
 Gaussian 16, Revision C.01,
 M. J. Frisch, G. W. Trucks, H. B. Schlegel, G. E. Scuseria, 
 M. A. Robb, J. R. Cheeseman, G. Scalmani, V. Barone, 
 G. A. Petersson, H. Nakatsuji, X. Li, M. Caricato, A. V. Marenich, 
 J. Bloino, B. G. Janesko, R. Gomperts, B. Mennucci, H. P. Hratchian, 
 J. V. Ortiz, A. F. Izmaylov, J. L. Sonnenberg, D. Williams-Young, 
 F. Ding, F. Lipparini, F. Egidi, J. Goings, B. Peng, A. Petrone, 
 T. Henderson, D. Ranasinghe, V. G. Zakrzewski, J. Gao, N. Rega, 
 G. Zheng, W. Liang, M. Hada, M. Ehara, K. Toyota, R. Fukuda, 
 J. Hasegawa, M. Ishida, T. Nakajima, Y. Honda, O. Kitao, H. Nakai, 
 T. Vreven, K. Throssell, J. A. Montgomery, Jr., J. E. Peralta, 
 F. Ogliaro, M. J. Bearpark, J. J. Heyd, E. N. Brothers, K. N. Kudin, 
 V. N. Staroverov, T. A. Keith, R. Kobayashi, J. Normand, 
 K. Raghavachari, A. P. Rendell, J. C. Burant, S. S. Iyengar, 
 J. Tomasi, M. Cossi, J. M. Millam, M. Klene, C. Adamo, R. Cammi, 
 J. W. Ochterski, R. L. Martin, K. Morokuma, O. Farkas, 
 J. B. Foresman, and D. J. Fox, Gaussian, Inc., Wallingford CT, 2019.
 
 ******************************************
 Gaussian 16:  AS64L-G16RevC.01  3-Jul-2019
                13-Mar-2023 
 ******************************************
 %chk=DATS_opt.chk
 %mem=64gb
 %nprocshared=32
 Will use up to   32 processors via shared memory.
 ----------------------------------------------
 # opt(ts,calcfc,noeigentest) b3lyp/6-31G* freq
 ----------------------------------------------
 1/5=1,10=4,11=1,18=20,26=3,38=1/1,3;
 2/9=110,12=2,17=6,18=5,40=1/2;
 3/5=1,6=6,7=1,11=2,25=1,30=1,71=2,74=-5,140=1/1,2,3;
 4//1;
 5/5=2,38=5/2;
 8/6=4,10=90,11=11/1;
 11/6=1,8=1,9=11,15=111,16=1/1,2,10;
 10/6=1,13=1/2;
 6/7=2,8=2,9=2,10=2,28=1/1;
 7/10=1,25=1/1,2,3,16;
 1/5=1,10=4,11=1,18=20,26=3/3(2);
 2/9=110/2;
 99//99;
 2/9=110/2;
 3/5=1,6=6,7=1,11=2,25=1,30=1,71=1,74=-5/1,2,3;
 4/5=5,16=3,69=1/1;
 5/5=2,38=5/2;
 7//1,2,3,16;
 1/5=1,11=1,18=20,26=3/3(-5);
 2/9=110/2;
 6/7=2,8=2,9=2,10=2,19=2,28=1/1;
 99/9=1/99;
 -------------------------------
 DATS_optcreated by GaussianPrep
 -------------------------------
 Symbolic Z-matrix:
 Charge =  0 Multiplicity = 1
 C                    -1.21613   0.46585   0.98853 
 C                    -0.37346  -0.63985   1.31126 
 H                    -1.84447   0.96952   1.71428 
 H                    -0.25951  -1.05341   2.3058 
 C                    -1.79144   0.18385  -0.35314 
 O                    -2.62761   0.77024  -0.98368 
 C                    -0.40241  -1.56377   0.15171 
 O                     0.10949  -2.63948  -0.00879 
 O                    -1.15563  -0.95545  -0.85785 
 C                     1.77046   0.60155  -0.14292 
 C                     0.91953   1.65978  -0.42215 
 H                     0.82573   1.98692  -1.45581 
 C                    -0.02994   2.13299   0.51567 
 H                     0.26226   2.24186   1.55715 
 C                     1.71281  -0.00088   1.13917 
 H                     1.58634   0.62167   2.01975 
 H                     2.26382  -0.92157   1.31415 
 H                    -0.75615   2.87067   0.18435 
 C                     2.57176  -0.06788  -1.23589 
 H                     2.28114  -1.12089  -1.33796 
 H                     2.41863   0.4216   -2.20216 
 H                     3.64503  -0.04875  -1.01042 
 
 Add virtual bond connecting atoms C13        and C1         Dist= 3.97D+00.
 Add virtual bond connecting atoms C15        and C2         Dist= 4.14D+00.

 GradGradGradGradGradGradGradGradGradGradGradGradGradGradGradGradGradGrad
 Berny optimization.
 Initialization pass.
                           ----------------------------
                           !    Initial Parameters    !
                           ! (Angstroms and Degrees)  !
 --------------------------                            --------------------------
 ! Name  Definition              Value          Derivative Info.                !
 --------------------------------------------------------------------------------
 ! R1    R(1,2)                  1.4272         calculate D2E/DX2 analytically  !
 ! R2    R(1,3)                  1.0841         calculate D2E/DX2 analytically  !
 ! R3    R(1,5)                  1.4868         calculate D2E/DX2 analytically  !
 ! R4    R(1,13)                 2.1            calculate D2E/DX2 analytically  !
 ! R5    R(2,4)                  1.0831         calculate D2E/DX2 analytically  !
 ! R6    R(2,7)                  1.4829         calculate D2E/DX2 analytically  !
 ! R7    R(2,15)                 2.1887         calculate D2E/DX2 analytically  !
 ! R8    R(5,6)                  1.2003         calculate D2E/DX2 analytically  !
 ! R9    R(5,9)                  1.3989         calculate D2E/DX2 analytically  !
 ! R10   R(7,8)                  1.2021         calculate D2E/DX2 analytically  !
 ! R11   R(7,9)                  1.3988         calculate D2E/DX2 analytically  !
 ! R12   R(10,11)                1.3863         calculate D2E/DX2 analytically  !
 ! R13   R(10,15)                1.4177         calculate D2E/DX2 analytically  !
 ! R14   R(10,19)                1.5116         calculate D2E/DX2 analytically  !
 ! R15   R(11,12)                1.0882         calculate D2E/DX2 analytically  !
 ! R16   R(11,13)                1.416          calculate D2E/DX2 analytically  !
 ! R17   R(13,14)                1.0872         calculate D2E/DX2 analytically  !
 ! R18   R(13,18)                1.0869         calculate D2E/DX2 analytically  !
 ! R19   R(15,16)                1.0858         calculate D2E/DX2 analytically  !
 ! R20   R(15,17)                1.0872         calculate D2E/DX2 analytically  !
 ! R21   R(19,20)                1.0971         calculate D2E/DX2 analytically  !
 ! R22   R(19,21)                1.094          calculate D2E/DX2 analytically  !
 ! R23   R(19,22)                1.0969         calculate D2E/DX2 analytically  !
 ! A1    A(2,1,3)              123.422          calculate D2E/DX2 analytically  !
 ! A2    A(2,1,5)              106.5935         calculate D2E/DX2 analytically  !
 ! A3    A(2,1,13)             109.4182         calculate D2E/DX2 analytically  !
 ! A4    A(3,1,5)              117.9017         calculate D2E/DX2 analytically  !
 ! A5    A(3,1,13)              96.2751         calculate D2E/DX2 analytically  !
 ! A6    A(5,1,13)              99.5524         calculate D2E/DX2 analytically  !
 ! A7    A(1,2,4)              124.4428         calculate D2E/DX2 analytically  !
 ! A8    A(1,2,7)              107.1192         calculate D2E/DX2 analytically  !
 ! A9    A(1,2,15)             108.5934         calculate D2E/DX2 analytically  !
 ! A10   A(4,2,7)              118.8261         calculate D2E/DX2 analytically  !
 ! A11   A(4,2,15)              94.783          calculate D2E/DX2 analytically  !
 ! A12   A(7,2,15)              97.991          calculate D2E/DX2 analytically  !
 ! A13   A(1,5,6)              130.614          calculate D2E/DX2 analytically  !
 ! A14   A(1,5,9)              107.7082         calculate D2E/DX2 analytically  !
 ! A15   A(6,5,9)              121.6672         calculate D2E/DX2 analytically  !
 ! A16   A(2,7,8)              130.8173         calculate D2E/DX2 analytically  !
 ! A17   A(2,7,9)              107.6922         calculate D2E/DX2 analytically  !
 ! A18   A(8,7,9)              121.4754         calculate D2E/DX2 analytically  !
 ! A19   A(5,9,7)              109.7877         calculate D2E/DX2 analytically  !
 ! A20   A(11,10,15)           118.7857         calculate D2E/DX2 analytically  !
 ! A21   A(11,10,19)           121.1856         calculate D2E/DX2 analytically  !
 ! A22   A(15,10,19)           119.1608         calculate D2E/DX2 analytically  !
 ! A23   A(10,11,12)           118.274          calculate D2E/DX2 analytically  !
 ! A24   A(10,11,13)           122.2282         calculate D2E/DX2 analytically  !
 ! A25   A(12,11,13)           118.0887         calculate D2E/DX2 analytically  !
 ! A26   A(1,13,11)            105.2234         calculate D2E/DX2 analytically  !
 ! A27   A(1,13,14)             90.8942         calculate D2E/DX2 analytically  !
 ! A28   A(1,13,18)            103.2993         calculate D2E/DX2 analytically  !
 ! A29   A(11,13,14)           119.192          calculate D2E/DX2 analytically  !
 ! A30   A(11,13,18)           118.2268         calculate D2E/DX2 analytically  !
 ! A31   A(14,13,18)           113.8057         calculate D2E/DX2 analytically  !
 ! A32   A(2,15,10)            103.5279         calculate D2E/DX2 analytically  !
 ! A33   A(2,15,16)             89.5758         calculate D2E/DX2 analytically  !
 ! A34   A(2,15,17)            102.8984         calculate D2E/DX2 analytically  !
 ! A35   A(10,15,16)           119.6371         calculate D2E/DX2 analytically  !
 ! A36   A(10,15,17)           118.999          calculate D2E/DX2 analytically  !
 ! A37   A(16,15,17)           114.4602         calculate D2E/DX2 analytically  !
 ! A38   A(10,19,20)           110.6043         calculate D2E/DX2 analytically  !
 ! A39   A(10,19,21)           111.4886         calculate D2E/DX2 analytically  !
 ! A40   A(10,19,22)           111.2446         calculate D2E/DX2 analytically  !
 ! A41   A(20,19,21)           108.071          calculate D2E/DX2 analytically  !
 ! A42   A(20,19,22)           107.1607         calculate D2E/DX2 analytically  !
 ! A43   A(21,19,22)           108.1036         calculate D2E/DX2 analytically  !
 ! D1    D(3,1,2,4)             -2.0891         calculate D2E/DX2 analytically  !
 ! D2    D(3,1,2,7)            143.2957         calculate D2E/DX2 analytically  !
 ! D3    D(3,1,2,15)          -111.8069         calculate D2E/DX2 analytically  !
 ! D4    D(5,1,2,4)           -143.5043         calculate D2E/DX2 analytically  !
 ! D5    D(5,1,2,7)              1.8805         calculate D2E/DX2 analytically  !
 ! D6    D(5,1,2,15)           106.7778         calculate D2E/DX2 analytically  !
 ! D7    D(13,1,2,4)           109.7185         calculate D2E/DX2 analytically  !
 ! D8    D(13,1,2,7)          -104.8967         calculate D2E/DX2 analytically  !
 ! D9    D(13,1,2,15)            0.0007         calculate D2E/DX2 analytically  !
 ! D10   D(2,1,5,6)            173.4445         calculate D2E/DX2 analytically  !
 ! D11   D(2,1,5,9)             -7.7521         calculate D2E/DX2 analytically  !
 ! D12   D(3,1,5,6)             29.5313         calculate D2E/DX2 analytically  !
 ! D13   D(3,1,5,9)           -151.6652         calculate D2E/DX2 analytically  !
 ! D14   D(13,1,5,6)           -72.8565         calculate D2E/DX2 analytically  !
 ! D15   D(13,1,5,9)           105.947          calculate D2E/DX2 analytically  !
 ! D16   D(2,1,13,11)           49.3872         calculate D2E/DX2 analytically  !
 ! D17   D(2,1,13,14)          -71.2622         calculate D2E/DX2 analytically  !
 ! D18   D(2,1,13,18)          173.9979         calculate D2E/DX2 analytically  !
 ! D19   D(3,1,13,11)          178.1653         calculate D2E/DX2 analytically  !
 ! D20   D(3,1,13,14)           57.5159         calculate D2E/DX2 analytically  !
 ! D21   D(3,1,13,18)          -57.224          calculate D2E/DX2 analytically  !
 ! D22   D(5,1,13,11)          -62.1055         calculate D2E/DX2 analytically  !
 ! D23   D(5,1,13,14)          177.2451         calculate D2E/DX2 analytically  !
 ! D24   D(5,1,13,18)           62.5051         calculate D2E/DX2 analytically  !
 ! D25   D(1,2,7,8)           -176.8221         calculate D2E/DX2 analytically  !
 ! D26   D(1,2,7,9)              4.6117         calculate D2E/DX2 analytically  !
 ! D27   D(4,2,7,8)            -29.1482         calculate D2E/DX2 analytically  !
 ! D28   D(4,2,7,9)            152.2856         calculate D2E/DX2 analytically  !
 ! D29   D(15,2,7,8)            70.8354         calculate D2E/DX2 analytically  !
 ! D30   D(15,2,7,9)          -107.7308         calculate D2E/DX2 analytically  !
 ! D31   D(1,2,15,10)          -50.6512         calculate D2E/DX2 analytically  !
 ! D32   D(1,2,15,16)           69.8029         calculate D2E/DX2 analytically  !
 ! D33   D(1,2,15,17)         -175.1669         calculate D2E/DX2 analytically  !
 ! D34   D(4,2,15,10)         -179.4777         calculate D2E/DX2 analytically  !
 ! D35   D(4,2,15,16)          -59.0236         calculate D2E/DX2 analytically  !
 ! D36   D(4,2,15,17)           56.0066         calculate D2E/DX2 analytically  !
 ! D37   D(7,2,15,10)           60.5006         calculate D2E/DX2 analytically  !
 ! D38   D(7,2,15,16)         -179.0453         calculate D2E/DX2 analytically  !
 ! D39   D(7,2,15,17)          -64.0151         calculate D2E/DX2 analytically  !
 ! D40   D(1,5,9,7)             10.9228         calculate D2E/DX2 analytically  !
 ! D41   D(6,5,9,7)           -170.1445         calculate D2E/DX2 analytically  !
 ! D42   D(2,7,9,5)             -9.7359         calculate D2E/DX2 analytically  !
 ! D43   D(8,7,9,5)            171.5363         calculate D2E/DX2 analytically  !
 ! D44   D(15,10,11,12)       -168.0352         calculate D2E/DX2 analytically  !
 ! D45   D(15,10,11,13)         -1.8503         calculate D2E/DX2 analytically  !
 ! D46   D(19,10,11,12)          1.2089         calculate D2E/DX2 analytically  !
 ! D47   D(19,10,11,13)        167.3938         calculate D2E/DX2 analytically  !
 ! D48   D(11,10,15,2)          57.4047         calculate D2E/DX2 analytically  !
 ! D49   D(11,10,15,16)        -39.9563         calculate D2E/DX2 analytically  !
 ! D50   D(11,10,15,17)        170.7245         calculate D2E/DX2 analytically  !
 ! D51   D(19,10,15,2)        -112.0606         calculate D2E/DX2 analytically  !
 ! D52   D(19,10,15,16)        150.5784         calculate D2E/DX2 analytically  !
 ! D53   D(19,10,15,17)          1.2591         calculate D2E/DX2 analytically  !
 ! D54   D(11,10,19,20)       -117.4457         calculate D2E/DX2 analytically  !
 ! D55   D(11,10,19,21)          2.8298         calculate D2E/DX2 analytically  !
 ! D56   D(11,10,19,22)        123.5836         calculate D2E/DX2 analytically  !
 ! D57   D(15,10,19,20)         51.7589         calculate D2E/DX2 analytically  !
 ! D58   D(15,10,19,21)        172.0344         calculate D2E/DX2 analytically  !
 ! D59   D(15,10,19,22)        -67.2119         calculate D2E/DX2 analytically  !
 ! D60   D(10,11,13,1)         -56.9908         calculate D2E/DX2 analytically  !
 ! D61   D(10,11,13,14)         42.8299         calculate D2E/DX2 analytically  !
 ! D62   D(10,11,13,18)       -171.6148         calculate D2E/DX2 analytically  !
 ! D63   D(12,11,13,1)         109.2186         calculate D2E/DX2 analytically  !
 ! D64   D(12,11,13,14)       -150.9607         calculate D2E/DX2 analytically  !
 ! D65   D(12,11,13,18)         -5.4054         calculate D2E/DX2 analytically  !
 --------------------------------------------------------------------------------
 Trust Radius=3.00D-01 FncErr=1.00D-07 GrdErr=1.00D-06 EigMax=2.50D+02 EigMin=1.00D-04
 Number of steps in this run=    132 maximum allowed number of steps=    132.
 Search for a saddle point of order  1.
 GradGradGradGradGradGradGradGradGradGradGradGradGradGradGradGradGradGrad

                          Input orientation:                          
 ---------------------------------------------------------------------
 Center     Atomic      Atomic             Coordinates (Angstroms)
 Number     Number       Type             X           Y           Z
 ---------------------------------------------------------------------
      1          6           0       -1.216126    0.465852    0.988531
      2          6           0       -0.373462   -0.639847    1.311258
      3          1           0       -1.844472    0.969518    1.714275
      4          1           0       -0.259508   -1.053412    2.305798
      5          6           0       -1.791437    0.183848   -0.353138
      6          8           0       -2.627613    0.770240   -0.983678
      7          6           0       -0.402405   -1.563773    0.151705
      8          8           0        0.109493   -2.639483   -0.008792
      9          8           0       -1.155627   -0.955447   -0.857845
     10          6           0        1.770463    0.601552   -0.142924
     11          6           0        0.919531    1.659778   -0.422150
     12          1           0        0.825733    1.986923   -1.455806
     13          6           0       -0.029937    2.132992    0.515668
     14          1           0        0.262260    2.241863    1.557146
     15          6           0        1.712805   -0.000876    1.139171
     16          1           0        1.586336    0.621669    2.019752
     17          1           0        2.263818   -0.921570    1.314150
     18          1           0       -0.756152    2.870672    0.184351
     19          6           0        2.571761   -0.067879   -1.235889
     20          1           0        2.281144   -1.120892   -1.337957
     21          1           0        2.418629    0.421602   -2.202165
     22          1           0        3.645027   -0.048747   -1.010415
 ---------------------------------------------------------------------
                    Distance matrix (angstroms):
                    1          2          3          4          5
     1  C    0.000000
     2  C    1.427167   0.000000
     3  H    1.084068   2.217284   0.000000
     4  H    2.226763   1.083112   2.637092   0.000000
     5  C    1.486804   2.336523   2.212303   3.308710   0.000000
     6  O    2.444290   3.512303   2.816376   4.444579   1.200261
     7  C    2.341324   1.482916   3.307377   2.218334   2.288767
     8  O    3.520657   2.444243   4.451048   2.830037   3.421010
     9  O    2.330849   2.327315   3.285696   3.289569   1.398920
    10  C    3.196611   2.872652   4.080728   3.585516   3.592464
    11  C    2.824272   3.156709   3.560967   4.024082   3.087471
    12  H    3.529537   3.999329   4.267847   4.956919   3.364006
    13  C    2.100000   2.905101   2.466347   3.662027   2.767105
    14  H    2.379740   2.961225   2.466145   3.419292   3.478833
    15  C    2.969708   2.188700   3.731840   2.521680   3.813243
    16  H    2.990232   2.436020   3.461901   2.508956   4.151102
    17  H    3.760449   2.652286   4.540304   2.714392   4.521824
    18  H    2.577099   3.706766   2.671983   4.488388   2.929118
    19  C    4.425042   3.935663   5.411356   4.640141   4.458712
    20  H    4.490123   3.781095   5.541357   4.442569   4.388409
    21  H    4.836729   4.611571   5.814873   5.447001   4.604355
    22  H    5.281231   4.678442   6.212519   5.220346   5.480990
                    6          7          8          9         10
     6  O    0.000000
     7  C    3.418810   0.000000
     8  O    4.479773   1.202061   0.000000
     9  O    2.271689   1.398783   2.270990   0.000000
    10  C    4.480892   3.081687   3.644327   3.390776   0.000000
    11  C    3.699841   3.531020   4.394391   3.366825   1.386324
    12  H    3.691723   4.086546   4.900049   3.597344   2.129654
    13  C    3.294397   3.733266   4.803230   3.562607   2.453669
    14  H    4.119809   4.110950   5.128649   4.250338   2.802773
    15  C    4.892886   2.809244   3.294036   3.623145   1.417749
    16  H    5.176875   3.495833   4.114750   4.276239   2.170593
    17  H    5.662891   2.978665   3.056553   4.051088   2.164801
    18  H    3.046059   4.448652   5.581080   3.985591   3.411715
    19  C    5.272527   3.606769   3.765857   3.850210   1.511552
    20  H    5.272361   3.101076   2.964602   3.474086   2.157710
    21  H    5.202962   4.176201   4.417379   4.059405   2.166327
    22  H    6.325936   4.475213   4.496127   4.887910   2.165507
                   11         12         13         14         15
    11  C    0.000000
    12  H    1.088240   0.000000
    13  C    1.415953   2.154116   0.000000
    14  H    2.165281   3.075772   1.087156   0.000000
    15  C    2.413458   3.387056   2.824765   2.703454   0.000000
    16  H    2.735907   3.810766   2.675576   2.142944   1.085808
    17  H    3.388983   4.266155   3.902465   3.751345   1.087157
    18  H    2.154535   2.444072   1.086891   1.821299   3.905537
    19  C    2.525239   2.705400   3.831529   4.297644   2.526501
    20  H    3.228749   3.433748   4.400543   4.875001   2.777338
    21  H    2.636063   2.354697   4.038681   4.700606   3.441105
    22  H    3.270083   3.505816   4.538092   4.825181   2.890760
                   16         17         18         19         20
    16  H    0.000000
    17  H    1.827141   0.000000
    18  H    3.730142   4.977727   0.000000
    19  C    3.470697   2.706717   4.661241   0.000000
    20  H    3.846230   2.659643   5.241676   1.097138   0.000000
    21  H    4.307821   3.767300   4.666116   1.093952   1.773428
    22  H    3.724188   2.841331   5.414873   1.096861   1.765490
                   21         22
    21  H    0.000000
    22  H    1.773569   0.000000
 Stoichiometry    C9H10O3
 Framework group  C1[X(C9H10O3)]
 Deg. of freedom    60
 Full point group                 C1      NOp   1
 Largest Abelian subgroup         C1      NOp   1
 Largest concise Abelian subgroup C1      NOp   1
                         Standard orientation:                         
 ---------------------------------------------------------------------
 Center     Atomic      Atomic             Coordinates (Angstroms)
 Number     Number       Type             X           Y           Z
 ---------------------------------------------------------------------
      1          6           0        1.216126   -0.465852    0.988531
      2          6           0        0.373462    0.639847    1.311258
      3          1           0        1.844472   -0.969518    1.714275
      4          1           0        0.259508    1.053412    2.305798
      5          6           0        1.791437   -0.183848   -0.353138
      6          8           0        2.627613   -0.770240   -0.983678
      7          6           0        0.402405    1.563773    0.151705
      8          8           0       -0.109494    2.639483   -0.008792
      9          8           0        1.155627    0.955447   -0.857845
     10          6           0       -1.770463   -0.601553   -0.142924
     11          6           0       -0.919531   -1.659778   -0.422150
     12          1           0       -0.825733   -1.986923   -1.455806
     13          6           0        0.029937   -2.132992    0.515668
     14          1           0       -0.262260   -2.241863    1.557146
     15          6           0       -1.712805    0.000875    1.139171
     16          1           0       -1.586336   -0.621669    2.019752
     17          1           0       -2.263818    0.921569    1.314150
     18          1           0        0.756153   -2.870672    0.184351
     19          6           0       -2.571761    0.067878   -1.235889
     20          1           0       -2.281144    1.120891   -1.337957
     21          1           0       -2.418629   -0.421603   -2.202165
     22          1           0       -3.645027    0.048746   -1.010415
 ---------------------------------------------------------------------
 Rotational constants (GHZ):           1.2221754           0.9755184           0.7456403
 Standard basis: 6-31G(d) (6D, 7F)
 There are   200 symmetry adapted cartesian basis functions of A   symmetry.
 There are   200 symmetry adapted basis functions of A   symmetry.
   200 basis functions,   376 primitive gaussians,   200 cartesian basis functions
    44 alpha electrons       44 beta electrons
       nuclear repulsion energy       715.1952215026 Hartrees.
 NAtoms=   22 NActive=   22 NUniq=   22 SFac= 1.00D+00 NAtFMM=   60 NAOKFM=F Big=F
 Integral buffers will be    131072 words long.
 Raffenetti 2 integral format.
 Two-electron integral symmetry is turned on.
 One-electron integrals computed using PRISM.
 NBasis=   200 RedAO= T EigKep=  1.19D-03  NBF=   200
 NBsUse=   200 1.00D-06 EigRej= -1.00D+00 NBFU=   200
 ExpMin= 1.61D-01 ExpMax= 5.48D+03 ExpMxC= 8.25D+02 IAcc=3 IRadAn=         5 AccDes= 0.00D+00
 Harris functional with IExCor=  402 and IRadAn=       5 diagonalized for initial guess.
 HarFok:  IExCor=  402 AccDes= 0.00D+00 IRadAn=         5 IDoV= 1 UseB2=F ITyADJ=14
 ICtDFT=  3500011 ScaDFX=  1.000000  1.000000  1.000000  1.000000
 FoFCou: FMM=F IPFlag=           0 FMFlag=      100000 FMFlg1=           0
         NFxFlg=           0 DoJE=T BraDBF=F KetDBF=T FulRan=T
         wScrn=  0.000000 ICntrl=       500 IOpCl=  0 I1Cent=   200000004 NGrid=           0
         NMat0=    1 NMatS0=      1 NMatT0=    0 NMatD0=    1 NMtDS0=    0 NMtDT0=    0
 Petite list used in FoFCou.
 Requested convergence on RMS density matrix=1.00D-08 within 128 cycles.
 Requested convergence on MAX density matrix=1.00D-06.
 Requested convergence on             energy=1.00D-06.
 No special actions if energy rises.
 Integral accuracy reduced to 1.0D-05 until final iterations.
 Initial convergence to 1.0D-05 achieved.  Increase integral accuracy.
 SCF Done:  E(RB3LYP) =  -574.579658883     A.U. after   15 cycles
            NFock= 15  Conv=0.61D-08     -V/T= 2.0094
 DoSCS=F DFT=T ScalE2(SS,OS)=  1.000000  1.000000
 Range of M.O.s used for correlation:     1   200
 NBasis=   200 NAE=    44 NBE=    44 NFC=     0 NFV=     0
 NROrb=    200 NOA=    44 NOB=    44 NVA=   156 NVB=   156
 Symmetrizing basis deriv contribution to polar:
 IMax=3 JMax=2 DiffMx= 0.00D+00
 G2DrvN: will do    23 centers at a time, making    1 passes.
 Calling FoFCou, ICntrl=  3107 FMM=F I1Cent=   0 AccDes= 0.00D+00.
 End of G2Drv F.D. properties file   721 does not exist.
 End of G2Drv F.D. properties file   722 does not exist.
 End of G2Drv F.D. properties file   788 does not exist.
          IDoAtm=1111111111111111111111
          Differentiating once with respect to nuclear coordinates.
 Keep R1 ints in memory in canonical form, NReq=234900293.
          There are    69 degrees of freedom in the 1st order CPHF.  IDoFFX=6 NUNeed=     0.
     63 vectors produced by pass  0 Test12= 9.95D-15 1.45D-09 XBig12= 1.56D-01 1.55D-01.
 AX will form    63 AO Fock derivatives at one time.
     63 vectors produced by pass  1 Test12= 9.95D-15 1.45D-09 XBig12= 2.66D-02 4.01D-02.
     63 vectors produced by pass  2 Test12= 9.95D-15 1.45D-09 XBig12= 3.31D-04 2.45D-03.
     63 vectors produced by pass  3 Test12= 9.95D-15 1.45D-09 XBig12= 1.40D-06 2.13D-04.
     63 vectors produced by pass  4 Test12= 9.95D-15 1.45D-09 XBig12= 2.27D-09 5.92D-06.
     52 vectors produced by pass  5 Test12= 9.95D-15 1.45D-09 XBig12= 2.02D-12 2.30D-07.
     11 vectors produced by pass  6 Test12= 9.95D-15 1.45D-09 XBig12= 2.62D-15 5.88D-09.
 InvSVY:  IOpt=1 It=  1 EMax= 5.55D-16
 Solved reduced A of dimension   378 with    69 vectors.
 End of Minotr F.D. properties file   721 does not exist.
 End of Minotr F.D. properties file   722 does not exist.
 End of Minotr F.D. properties file   788 does not exist.

 **********************************************************************

            Population analysis using the SCF Density.

 **********************************************************************

 Orbital symmetries:
       Occupied  (A) (A) (A) (A) (A) (A) (A) (A) (A) (A) (A) (A)
                 (A) (A) (A) (A) (A) (A) (A) (A) (A) (A) (A) (A)
                 (A) (A) (A) (A) (A) (A) (A) (A) (A) (A) (A) (A)
                 (A) (A) (A) (A) (A) (A) (A) (A)
       Virtual   (A) (A) (A) (A) (A) (A) (A) (A) (A) (A) (A) (A)
                 (A) (A) (A) (A) (A) (A) (A) (A) (A) (A) (A) (A)
                 (A) (A) (A) (A) (A) (A) (A) (A) (A) (A) (A) (A)
                 (A) (A) (A) (A) (A) (A) (A) (A) (A) (A) (A) (A)
                 (A) (A) (A) (A) (A) (A) (A) (A) (A) (A) (A) (A)
                 (A) (A) (A) (A) (A) (A) (A) (A) (A) (A) (A) (A)
                 (A) (A) (A) (A) (A) (A) (A) (A) (A) (A) (A) (A)
                 (A) (A) (A) (A) (A) (A) (A) (A) (A) (A) (A) (A)
                 (A) (A) (A) (A) (A) (A) (A) (A) (A) (A) (A) (A)
                 (A) (A) (A) (A) (A) (A) (A) (A) (A) (A) (A) (A)
                 (A) (A) (A) (A) (A) (A) (A) (A) (A) (A) (A) (A)
                 (A) (A) (A) (A) (A) (A) (A) (A) (A) (A) (A) (A)
                 (A) (A) (A) (A) (A) (A) (A) (A) (A) (A) (A) (A)
 The electronic state is 1-A.
 Alpha  occ. eigenvalues --  -19.20564 -19.14810 -19.14792 -10.32718 -10.32678
 Alpha  occ. eigenvalues --  -10.23242 -10.23162 -10.23021 -10.22926 -10.22165
 Alpha  occ. eigenvalues --  -10.20943 -10.19480  -1.12468  -1.05968  -1.02135
 Alpha  occ. eigenvalues --   -0.85373  -0.81424  -0.75946  -0.70979  -0.68398
 Alpha  occ. eigenvalues --   -0.64508  -0.61720  -0.57159  -0.54105  -0.50277
 Alpha  occ. eigenvalues --   -0.49480  -0.48236  -0.46945  -0.45974  -0.43728
 Alpha  occ. eigenvalues --   -0.43608  -0.42615  -0.42438  -0.40325  -0.39745
 Alpha  occ. eigenvalues --   -0.38861  -0.37865  -0.37513  -0.36139  -0.31872
 Alpha  occ. eigenvalues --   -0.29892  -0.27932  -0.26105  -0.25647
 Alpha virt. eigenvalues --   -0.06377  -0.04829   0.01074   0.05090   0.07611
 Alpha virt. eigenvalues --    0.09482   0.10892   0.11099   0.11988   0.14303
 Alpha virt. eigenvalues --    0.14647   0.16554   0.16803   0.17906   0.19472
 Alpha virt. eigenvalues --    0.20109   0.22135   0.23585   0.24466   0.25770
 Alpha virt. eigenvalues --    0.30337   0.32376   0.34273   0.38668   0.39413
 Alpha virt. eigenvalues --    0.41253   0.43858   0.46708   0.48938   0.50624
 Alpha virt. eigenvalues --    0.52156   0.53460   0.54060   0.54773   0.57798
 Alpha virt. eigenvalues --    0.59982   0.61001   0.62778   0.63834   0.65022
 Alpha virt. eigenvalues --    0.66630   0.68564   0.69207   0.69892   0.70889
 Alpha virt. eigenvalues --    0.74687   0.76655   0.77873   0.78316   0.79161
 Alpha virt. eigenvalues --    0.80888   0.82438   0.83419   0.84724   0.85250
 Alpha virt. eigenvalues --    0.87384   0.89765   0.90394   0.92195   0.94248
 Alpha virt. eigenvalues --    0.94572   0.95027   0.96412   0.97980   0.99181
 Alpha virt. eigenvalues --    1.01284   1.03181   1.04926   1.06568   1.07669
 Alpha virt. eigenvalues --    1.09446   1.12307   1.15131   1.20914   1.23802
 Alpha virt. eigenvalues --    1.25858   1.29348   1.33496   1.34924   1.36803
 Alpha virt. eigenvalues --    1.39021   1.40069   1.44124   1.45329   1.47681
 Alpha virt. eigenvalues --    1.50828   1.52259   1.61023   1.64544   1.69035
 Alpha virt. eigenvalues --    1.72523   1.74060   1.75656   1.77016   1.78368
 Alpha virt. eigenvalues --    1.80317   1.80881   1.82131   1.83478   1.84328
 Alpha virt. eigenvalues --    1.85868   1.89944   1.91223   1.91724   1.94706
 Alpha virt. eigenvalues --    1.96324   1.96999   2.01865   2.02706   2.06195
 Alpha virt. eigenvalues --    2.08470   2.10168   2.13212   2.14404   2.17907
 Alpha virt. eigenvalues --    2.19524   2.23615   2.26931   2.27464   2.28439
 Alpha virt. eigenvalues --    2.30913   2.33527   2.34514   2.35665   2.40975
 Alpha virt. eigenvalues --    2.47208   2.51160   2.54493   2.57504   2.58218
 Alpha virt. eigenvalues --    2.61964   2.65649   2.67126   2.70052   2.71406
 Alpha virt. eigenvalues --    2.76764   2.82337   2.86963   2.89471   2.99110
 Alpha virt. eigenvalues --    3.01038   3.02527   3.13871   3.22751   4.02125
 Alpha virt. eigenvalues --    4.07614   4.11000   4.21145   4.25784   4.28920
 Alpha virt. eigenvalues --    4.34750   4.40153   4.51218   4.52675   4.59799
 Alpha virt. eigenvalues --    4.90841
          Condensed to atoms (all electrons):
               1          2          3          4          5          6
     1  C    5.412979   0.328093   0.357397  -0.029702   0.322647  -0.074370
     2  C    0.328093   5.396383  -0.029585   0.357922  -0.036848   0.003444
     3  H    0.357397  -0.029585   0.525917  -0.002753  -0.026122   0.000508
     4  H   -0.029702   0.357922  -0.002753   0.522972   0.003657  -0.000032
     5  C    0.322647  -0.036848  -0.026122   0.003657   4.299296   0.613701
     6  O   -0.074370   0.003444   0.000508  -0.000032   0.613701   7.974810
     7  C   -0.037453   0.330859   0.003584  -0.025902  -0.019892  -0.000081
     8  O    0.003519  -0.074563  -0.000032   0.000414   0.000014  -0.000028
     9  O   -0.099330  -0.099822   0.002642   0.002613   0.218002  -0.065210
    10  C   -0.020449  -0.005713   0.000467   0.000467  -0.001182   0.000079
    11  C   -0.022378  -0.026939   0.000957   0.000583  -0.002962  -0.001264
    12  H    0.000838  -0.000135  -0.000064   0.000005   0.001122   0.000034
    13  C    0.155041  -0.020484  -0.012250   0.001028  -0.006756  -0.003171
    14  H   -0.020495  -0.006195  -0.003070   0.000168   0.001764   0.000112
    15  C   -0.018741   0.139295   0.001052  -0.009389   0.000073   0.000006
    16  H   -0.005536  -0.015627   0.000094  -0.002506   0.000053   0.000001
    17  H    0.001259  -0.011223  -0.000035   0.000618  -0.000007   0.000000
    18  H   -0.013698   0.001653   0.000503  -0.000042  -0.001457   0.003070
    19  C   -0.000007   0.000183   0.000002  -0.000055   0.000073   0.000001
    20  H    0.000088   0.000414  -0.000001   0.000008   0.000012  -0.000000
    21  H    0.000008  -0.000038  -0.000000   0.000001   0.000004  -0.000001
    22  H   -0.000023  -0.000081   0.000000   0.000000  -0.000002   0.000000
               7          8          9         10         11         12
     1  C   -0.037453   0.003519  -0.099330  -0.020449  -0.022378   0.000838
     2  C    0.330859  -0.074563  -0.099822  -0.005713  -0.026939  -0.000135
     3  H    0.003584  -0.000032   0.002642   0.000467   0.000957  -0.000064
     4  H   -0.025902   0.000414   0.002613   0.000467   0.000583   0.000005
     5  C   -0.019892   0.000014   0.218002  -0.001182  -0.002962   0.001122
     6  O   -0.000081  -0.000028  -0.065210   0.000079  -0.001264   0.000034
     7  C    4.297694   0.599466   0.218678  -0.002218  -0.000985  -0.000019
     8  O    0.599466   7.997587  -0.065261  -0.001463   0.000123   0.000002
     9  O    0.218678  -0.065261   8.348220   0.002068   0.003819  -0.000180
    10  C   -0.002218  -0.001463   0.002068   4.596235   0.599995  -0.038228
    11  C   -0.000985   0.000123   0.003819   0.599995   4.916123   0.366303
    12  H   -0.000019   0.000002  -0.000180  -0.038228   0.366303   0.571737
    13  C    0.000131   0.000016  -0.002239  -0.036925   0.473270  -0.055799
    14  H    0.000045   0.000001  -0.000027  -0.011743  -0.030951   0.004530
    15  C   -0.004500  -0.003149  -0.001806   0.483260  -0.058473   0.007518
    16  H    0.001481   0.000126  -0.000022  -0.023479  -0.011829  -0.000046
    17  H   -0.001517   0.002814   0.000103  -0.030045   0.005884  -0.000138
    18  H   -0.000014   0.000000   0.000107   0.004355  -0.023555  -0.005774
    19  C    0.000554  -0.001188   0.000088   0.377171  -0.049143  -0.012052
    20  H    0.002229   0.004298  -0.000406  -0.029963   0.000242   0.000095
    21  H   -0.000041   0.000016   0.000000  -0.031026  -0.004451   0.007245
    22  H    0.000010   0.000019   0.000007  -0.026352   0.001275   0.000237
              13         14         15         16         17         18
     1  C    0.155041  -0.020495  -0.018741  -0.005536   0.001259  -0.013698
     2  C   -0.020484  -0.006195   0.139295  -0.015627  -0.011223   0.001653
     3  H   -0.012250  -0.003070   0.001052   0.000094  -0.000035   0.000503
     4  H    0.001028   0.000168  -0.009389  -0.002506   0.000618  -0.000042
     5  C   -0.006756   0.001764   0.000073   0.000053  -0.000007  -0.001457
     6  O   -0.003171   0.000112   0.000006   0.000001   0.000000   0.003070
     7  C    0.000131   0.000045  -0.004500   0.001481  -0.001517  -0.000014
     8  O    0.000016   0.000001  -0.003149   0.000126   0.002814   0.000000
     9  O   -0.002239  -0.000027  -0.001806  -0.000022   0.000103   0.000107
    10  C   -0.036925  -0.011743   0.483260  -0.023479  -0.030045   0.004355
    11  C    0.473270  -0.030951  -0.058473  -0.011829   0.005884  -0.023555
    12  H   -0.055799   0.004530   0.007518  -0.000046  -0.000138  -0.005774
    13  C    5.132316   0.364540  -0.031969   0.005696   0.000396   0.361369
    14  H    0.364540   0.552570   0.005649   0.005799  -0.000060  -0.034326
    15  C   -0.031969   0.005649   5.222074   0.355001   0.360395   0.000583
    16  H    0.005696   0.005799   0.355001   0.549690  -0.035110  -0.000042
    17  H    0.000396  -0.000060   0.360395  -0.035110   0.528053  -0.000008
    18  H    0.361369  -0.034326   0.000583  -0.000042  -0.000008   0.523061
    19  C    0.007488  -0.000014  -0.076153   0.004896  -0.006782  -0.000128
    20  H   -0.000198  -0.000011  -0.002496   0.000049   0.002595   0.000003
    21  H    0.000117   0.000003   0.005062  -0.000164   0.000093  -0.000015
    22  H   -0.000177   0.000017  -0.003924  -0.000055   0.001056   0.000002
              19         20         21         22
     1  C   -0.000007   0.000088   0.000008  -0.000023
     2  C    0.000183   0.000414  -0.000038  -0.000081
     3  H    0.000002  -0.000001  -0.000000   0.000000
     4  H   -0.000055   0.000008   0.000001   0.000000
     5  C    0.000073   0.000012   0.000004  -0.000002
     6  O    0.000001  -0.000000  -0.000001   0.000000
     7  C    0.000554   0.002229  -0.000041   0.000010
     8  O   -0.001188   0.004298   0.000016   0.000019
     9  O    0.000088  -0.000406   0.000000   0.000007
    10  C    0.377171  -0.029963  -0.031026  -0.026352
    11  C   -0.049143   0.000242  -0.004451   0.001275
    12  H   -0.012052   0.000095   0.007245   0.000237
    13  C    0.007488  -0.000198   0.000117  -0.000177
    14  H   -0.000014  -0.000011   0.000003   0.000017
    15  C   -0.076153  -0.002496   0.005062  -0.003924
    16  H    0.004896   0.000049  -0.000164  -0.000055
    17  H   -0.006782   0.002595   0.000093   0.001056
    18  H   -0.000128   0.000003  -0.000015   0.000002
    19  C    5.189570   0.363610   0.366109   0.361670
    20  H    0.363610   0.520152  -0.023150  -0.029452
    21  H    0.366109  -0.023150   0.546167  -0.028968
    22  H    0.361670  -0.029452  -0.028968   0.560366
 Mulliken charges:
               1
     1  C   -0.239687
     2  C   -0.230995
     3  H    0.180790
     4  H    0.179924
     5  C    0.634810
     6  O   -0.451608
     7  C    0.637895
     8  O   -0.462729
     9  O   -0.462043
    10  C    0.194689
    11  C   -0.135643
    12  H    0.152767
    13  C   -0.331439
    14  H    0.171696
    15  C   -0.369369
    16  H    0.171531
    17  H    0.181661
    18  H    0.184353
    19  C   -0.525893
    20  H    0.191884
    21  H    0.163028
    22  H    0.164378
 Sum of Mulliken charges =  -0.00000
 Mulliken charges with hydrogens summed into heavy atoms:
               1
     1  C   -0.058896
     2  C   -0.051070
     5  C    0.634810
     6  O   -0.451608
     7  C    0.637895
     8  O   -0.462729
     9  O   -0.462043
    10  C    0.194689
    11  C    0.017124
    13  C    0.024610
    15  C   -0.016178
    19  C   -0.006603
 APT charges:
               1
     1  C   -0.623061
     2  C   -0.614828
     3  H    0.613629
     4  H    0.588689
     5  C   -0.376712
     6  O    0.410924
     7  C   -0.270100
     8  O    0.272611
     9  O   -0.212208
    10  C   -0.115399
    11  C   -0.435688
    12  H    0.455679
    13  C   -0.919995
    14  H    0.459208
    15  C   -0.871756
    16  H    0.461308
    17  H    0.502459
    18  H    0.550120
    19  C   -1.240926
    20  H    0.290878
    21  H    0.434404
    22  H    0.640765
 Sum of APT charges =  -0.00000
 APT charges with hydrogens summed into heavy atoms:
               1
     1  C   -0.009432
     2  C   -0.026139
     5  C   -0.376712
     6  O    0.410924
     7  C   -0.270100
     8  O    0.272611
     9  O   -0.212208
    10  C   -0.115399
    11  C    0.019992
    13  C    0.089334
    15  C    0.092010
    19  C    0.125121
 Electronic spatial extent (au):  <R**2>=           1748.3265
 Charge=              0.0000 electrons
 Dipole moment (field-independent basis, Debye):
    X=             -2.8086    Y=             -2.8015    Z=              3.4613  Tot=              5.2647
 Quadrupole moment (field-independent basis, Debye-Ang):
   XX=            -72.6963   YY=            -75.8912   ZZ=            -65.4965
   XY=              1.2040   XZ=              6.3376   YZ=              0.5437
 Traceless Quadrupole moment (field-independent basis, Debye-Ang):
   XX=             -1.3350   YY=             -4.5299   ZZ=              5.8648
   XY=              1.2040   XZ=              6.3376   YZ=              0.5437
 Octapole moment (field-independent basis, Debye-Ang**2):
  XXX=            -15.4025  YYY=            -21.4362  ZZZ=              3.5921  XYY=              8.6559
  XXY=             15.8877  XXZ=             10.7398  XZZ=             -3.6297  YZZ=              0.4599
  YYZ=              2.1367  XYZ=             -3.5914
 Hexadecapole moment (field-independent basis, Debye-Ang**3):
 XXXX=          -1092.0385 YYYY=           -825.9959 ZZZZ=           -394.5897 XXXY=              5.6466
 XXXZ=             26.3531 YYYX=            -11.7956 YYYZ=              2.0259 ZZZX=             -2.6589
 ZZZY=              3.4405 XXYY=           -310.1890 XXZZ=           -249.8862 YYZZ=           -186.7291
 XXYZ=             -8.6492 YYXZ=              2.3578 ZZXY=              0.1535
 N-N= 7.151952215026D+02 E-N=-2.769368976137D+03  KE= 5.692121570279D+02
  Exact polarizability:       0.000       0.000       0.000       0.000       0.000       0.000
 Approx polarizability:     200.853     -20.134     196.036       0.671      19.548     141.960
 Calling FoFJK, ICntrl=    100127 FMM=F ISym2X=0 I1Cent= 0 IOpClX= 0 NMat=1 NMatS=1 NMatT=0.
 ***** Axes restored to original set *****
 -------------------------------------------------------------------
 Center     Atomic                   Forces (Hartrees/Bohr)
 Number     Number              X              Y              Z
 -------------------------------------------------------------------
      1        6           0.009357426    0.013147300   -0.003731040
      2        6           0.017832241    0.005434866   -0.001499719
      3        1          -0.000003018   -0.000003148    0.000001832
      4        1           0.000005130    0.000000348    0.000001233
      5        6           0.000006909   -0.000000921    0.000007491
      6        8          -0.000009996    0.000001163   -0.000004600
      7        6           0.000000335    0.000024420    0.000030757
      8        8          -0.000001233   -0.000011468    0.000001557
      9        8           0.000006922    0.000005336   -0.000009028
     10        6           0.000019136   -0.000024811    0.000016092
     11        6          -0.000013826    0.000006718   -0.000001361
     12        1           0.000002006   -0.000002513    0.000002196
     13        6          -0.009339188   -0.013132456    0.003734255
     14        1          -0.000004165   -0.000002165   -0.000003456
     15        6          -0.017848280   -0.005455549    0.001469199
     16        1          -0.000004945    0.000007343   -0.000017916
     17        1          -0.000001278    0.000001220   -0.000002107
     18        1           0.000000403    0.000000976    0.000000793
     19        6          -0.000010768    0.000009374   -0.000004032
     20        1           0.000003231   -0.000004089    0.000001340
     21        1           0.000001036   -0.000000981    0.000003116
     22        1           0.000001921   -0.000000963    0.000003399
 -------------------------------------------------------------------
 Cartesian Forces:  Max     0.017848280 RMS     0.004348847
 FormGI is forming the generalized inverse of G from B-inverse, IUseBI=4.

 GradGradGradGradGradGradGradGradGradGradGradGradGradGradGradGradGradGrad
 Berny optimization.
 Internal  Forces:  Max     0.018273063 RMS     0.002165389
 Search for a saddle point.
 Step number   1 out of a maximum of  132
 All quantities printed in internal units (Hartrees-Bohrs-Radians)
 Swapping is turned off.
 Second derivative matrix not updated -- analytic derivatives used.
 ITU=  0
     Eigenvalues ---   -0.03757  -0.00027   0.00128   0.00520   0.00898
     Eigenvalues ---    0.01168   0.01265   0.01589   0.01697   0.01975
     Eigenvalues ---    0.02130   0.02459   0.03086   0.03103   0.03945
     Eigenvalues ---    0.04022   0.04228   0.04485   0.04944   0.05169
     Eigenvalues ---    0.05609   0.05784   0.05811   0.05922   0.06102
     Eigenvalues ---    0.06175   0.06817   0.07431   0.12295   0.12612
     Eigenvalues ---    0.12980   0.14193   0.14711   0.15104   0.15473
     Eigenvalues ---    0.17220   0.19587   0.20290   0.24035   0.25559
     Eigenvalues ---    0.27438   0.29427   0.31364   0.33174   0.33457
     Eigenvalues ---    0.34022   0.34756   0.34916   0.35633   0.35760
     Eigenvalues ---    0.36071   0.36338   0.36394   0.36721   0.37021
     Eigenvalues ---    0.38979   0.39637   0.48621   0.90878   0.92384
 Eigenvectors required to have negative eigenvalues:
                          R4        R7        D61       D64       D49
   1                    0.58660   0.57811  -0.17629  -0.16666   0.16454
                          D52       D2        D4        R1        D12
   1                    0.16173   0.13149  -0.12831  -0.11707  -0.11599
 RFO step:  Lambda0=9.040491995D-03 Lambda=-3.93613509D-03.
 Linear search not attempted -- option 19 set.
 Maximum step size (   0.300) exceeded in Quadratic search.
    -- Step size scaled by   0.484
 Iteration  1 RMS(Cart)=  0.03936362 RMS(Int)=  0.00378827
 Iteration  2 RMS(Cart)=  0.00597974 RMS(Int)=  0.00068510
 Iteration  3 RMS(Cart)=  0.00000739 RMS(Int)=  0.00068508
 Iteration  4 RMS(Cart)=  0.00000000 RMS(Int)=  0.00068508
 Variable       Old X    -DE/DX   Delta X   Delta X   Delta X     New X
                                 (Linear)    (Quad)   (Total)
    R1        2.69695   0.00067   0.00000  -0.02570  -0.02538   2.67157
    R2        2.04859   0.00000   0.00000  -0.00353  -0.00353   2.04506
    R3        2.80965  -0.00006   0.00000  -0.01909  -0.01859   2.79106
    R4        3.96842  -0.01644   0.00000   0.24206   0.24183   4.21026
    R5        2.04678   0.00000   0.00000   0.00025   0.00025   2.04704
    R6        2.80231  -0.00007   0.00000   0.00987   0.00973   2.81203
    R7        4.13604  -0.01827   0.00000  -0.09498  -0.09495   4.04109
    R8        2.26816   0.00001   0.00000   0.00055   0.00055   2.26871
    R9        2.64358   0.00015   0.00000   0.01426   0.01394   2.65751
   R10        2.27157   0.00001   0.00000   0.00070   0.00070   2.27227
   R11        2.64332   0.00015   0.00000  -0.01270  -0.01338   2.62994
   R12        2.61977  -0.00084   0.00000   0.01671   0.01702   2.63679
   R13        2.67916  -0.00040   0.00000  -0.01224  -0.01195   2.66720
   R14        2.85642  -0.00001   0.00000  -0.00041  -0.00041   2.85601
   R15        2.05648  -0.00000   0.00000   0.00025   0.00025   2.05673
   R16        2.67576  -0.00049   0.00000  -0.03329  -0.03326   2.64251
   R17        2.05443  -0.00000   0.00000  -0.00388  -0.00388   2.05054
   R18        2.05393   0.00000   0.00000  -0.00167  -0.00167   2.05226
   R19        2.05188  -0.00001   0.00000  -0.00028  -0.00028   2.05160
   R20        2.05443  -0.00000   0.00000   0.00034   0.00034   2.05477
   R21        2.07329   0.00000   0.00000  -0.00016  -0.00016   2.07313
   R22        2.06727  -0.00000   0.00000  -0.00002  -0.00002   2.06725
   R23        2.07277   0.00000   0.00000   0.00012   0.00012   2.07289
    A1        2.15412  -0.00025   0.00000   0.03560   0.03281   2.18693
    A2        1.86041  -0.00003   0.00000   0.01514   0.01377   1.87418
    A3        1.90971   0.00075   0.00000  -0.03316  -0.03358   1.87612
    A4        2.05777   0.00019   0.00000   0.02779   0.02436   2.08213
    A5        1.68032  -0.00031   0.00000  -0.04253  -0.04102   1.63930
    A6        1.73752  -0.00027   0.00000  -0.04150  -0.04114   1.69638
    A7        2.17194  -0.00026   0.00000   0.00274   0.00262   2.17456
    A8        1.86958  -0.00006   0.00000  -0.00539  -0.00467   1.86491
    A9        1.89531   0.00093   0.00000   0.03073   0.03017   1.92548
   A10        2.07391   0.00020   0.00000   0.00301   0.00258   2.07648
   A11        1.65427  -0.00040   0.00000  -0.02678  -0.02642   1.62785
   A12        1.71026  -0.00031   0.00000  -0.00255  -0.00270   1.70757
   A13        2.27964   0.00001   0.00000   0.01165   0.01119   2.29084
   A14        1.87986  -0.00003   0.00000  -0.00563  -0.00478   1.87508
   A15        2.12349   0.00002   0.00000  -0.00581  -0.00626   2.11723
   A16        2.28319   0.00000   0.00000  -0.00682  -0.00676   2.27643
   A17        1.87958  -0.00001   0.00000   0.00018   0.00006   1.87964
   A18        2.12015   0.00001   0.00000   0.00652   0.00657   2.12671
   A19        1.91616   0.00009   0.00000  -0.00289  -0.00316   1.91300
   A20        2.07320  -0.00056   0.00000   0.00135   0.00184   2.07504
   A21        2.11509   0.00025   0.00000  -0.00672  -0.00702   2.10806
   A22        2.07975   0.00028   0.00000   0.00291   0.00262   2.08237
   A23        2.06427   0.00025   0.00000  -0.00599  -0.00613   2.05814
   A24        2.13328  -0.00071   0.00000   0.00522   0.00547   2.13875
   A25        2.06104   0.00039   0.00000   0.00110   0.00098   2.06201
   A26        1.83650  -0.00036   0.00000  -0.03558  -0.03555   1.80095
   A27        1.58640  -0.00023   0.00000  -0.07801  -0.07762   1.50878
   A28        1.80291   0.00049   0.00000  -0.00424  -0.00349   1.79942
   A29        2.08029   0.00030   0.00000   0.02445   0.02061   2.10090
   A30        2.06345  -0.00020   0.00000   0.02355   0.02214   2.08559
   A31        1.98628  -0.00001   0.00000   0.01894   0.01667   2.00295
   A32        1.80690  -0.00002   0.00000   0.01263   0.01276   1.81966
   A33        1.56339  -0.00020   0.00000   0.00087   0.00071   1.56410
   A34        1.79592   0.00022   0.00000  -0.00976  -0.00973   1.78619
   A35        2.08806   0.00025   0.00000   0.00274   0.00274   2.09080
   A36        2.07692  -0.00025   0.00000  -0.00394  -0.00398   2.07294
   A37        1.99771   0.00002   0.00000  -0.00079  -0.00078   1.99693
   A38        1.93041   0.00000   0.00000   0.00158   0.00158   1.93199
   A39        1.94584   0.00000   0.00000   0.00078   0.00078   1.94662
   A40        1.94158  -0.00000   0.00000  -0.00230  -0.00230   1.93928
   A41        1.88619   0.00000   0.00000   0.00071   0.00071   1.88690
   A42        1.87031  -0.00000   0.00000  -0.00013  -0.00013   1.87017
   A43        1.88676   0.00000   0.00000  -0.00063  -0.00063   1.88613
    D1       -0.03646   0.00003   0.00000   0.09707   0.09779   0.06132
    D2        2.50098  -0.00007   0.00000   0.09825   0.09912   2.60010
    D3       -1.95140  -0.00006   0.00000   0.10559   0.10638  -1.84502
    D4       -2.50462   0.00007   0.00000  -0.02030  -0.02074  -2.52537
    D5        0.03282  -0.00003   0.00000  -0.01912  -0.01941   0.01341
    D6        1.86362  -0.00002   0.00000  -0.01177  -0.01215   1.85147
    D7        1.91495   0.00008   0.00000   0.03390   0.03354   1.94849
    D8       -1.83079  -0.00002   0.00000   0.03508   0.03487  -1.79592
    D9        0.00001  -0.00001   0.00000   0.04242   0.04213   0.04214
   D10        3.02718  -0.00021   0.00000   0.00648   0.00683   3.03401
   D11       -0.13530  -0.00010   0.00000   0.01836   0.01870  -0.11660
   D12        0.51542   0.00001   0.00000  -0.10713  -0.10742   0.40800
   D13       -2.64706   0.00013   0.00000  -0.09526  -0.09555  -2.74261
   D14       -1.27158   0.00048   0.00000  -0.04146  -0.04173  -1.31331
   D15        1.84912   0.00059   0.00000  -0.02959  -0.02986   1.81926
   D16        0.86197   0.00038   0.00000  -0.03696  -0.03591   0.82605
   D17       -1.24376   0.00020   0.00000  -0.03089  -0.03125  -1.27501
   D18        3.03684   0.00022   0.00000  -0.02910  -0.02894   3.00789
   D19        3.10957   0.00024   0.00000  -0.03335  -0.03251   3.07706
   D20        1.00384   0.00007   0.00000  -0.02729  -0.02785   0.97599
   D21       -0.99875   0.00008   0.00000  -0.02550  -0.02554  -1.02428
   D22       -1.08395   0.00030   0.00000  -0.02465  -0.02426  -1.10821
   D23        3.09351   0.00012   0.00000  -0.01859  -0.01960   3.07391
   D24        1.09092   0.00014   0.00000  -0.01680  -0.01729   1.07363
   D25       -3.08613   0.00028   0.00000   0.00969   0.00955  -3.07658
   D26        0.08049   0.00016   0.00000   0.01500   0.01503   0.09552
   D27       -0.50873   0.00001   0.00000   0.01091   0.01101  -0.49772
   D28        2.65789  -0.00012   0.00000   0.01623   0.01649   2.67438
   D29        1.23631  -0.00059   0.00000  -0.02109  -0.02075   1.21557
   D30       -1.88026  -0.00072   0.00000  -0.01578  -0.01527  -1.89553
   D31       -0.88403  -0.00038   0.00000  -0.04421  -0.04468  -0.92871
   D32        1.21829  -0.00018   0.00000  -0.03945  -0.03987   1.17842
   D33       -3.05724  -0.00019   0.00000  -0.04101  -0.04143  -3.09867
   D34       -3.13248  -0.00025   0.00000  -0.04553  -0.04545   3.10526
   D35       -1.03016  -0.00004   0.00000  -0.04078  -0.04064  -1.07080
   D36        0.97750  -0.00006   0.00000  -0.04233  -0.04221   0.93529
   D37        1.05594  -0.00031   0.00000  -0.04253  -0.04234   1.01359
   D38       -3.12493  -0.00011   0.00000  -0.03777  -0.03753   3.12072
   D39       -1.11727  -0.00012   0.00000  -0.03933  -0.03910  -1.15637
   D40        0.19064   0.00022   0.00000  -0.01004  -0.01011   0.18052
   D41       -2.96958   0.00032   0.00000   0.00080   0.00058  -2.96901
   D42       -0.16992  -0.00024   0.00000  -0.00251  -0.00235  -0.17227
   D43        2.99387  -0.00035   0.00000   0.00243   0.00278   2.99665
   D44       -2.93277   0.00036   0.00000   0.02782   0.02785  -2.90491
   D45       -0.03229   0.00006   0.00000   0.02952   0.02945  -0.00284
   D46        0.02110   0.00018   0.00000   0.01308   0.01309   0.03419
   D47        2.92157  -0.00011   0.00000   0.01478   0.01469   2.93626
   D48        1.00190  -0.00037   0.00000   0.03071   0.03055   1.03245
   D49       -0.69737  -0.00021   0.00000   0.02116   0.02103  -0.67634
   D50        2.97970  -0.00024   0.00000   0.02548   0.02540   3.00511
   D51       -1.95583  -0.00020   0.00000   0.04620   0.04615  -1.90968
   D52        2.62809  -0.00003   0.00000   0.03665   0.03663   2.66472
   D53        0.02198  -0.00006   0.00000   0.04097   0.04100   0.06297
   D54       -2.04981   0.00013   0.00000  -0.00130  -0.00133  -2.05114
   D55        0.04939   0.00013   0.00000   0.00118   0.00115   0.05054
   D56        2.15694   0.00013   0.00000  -0.00068  -0.00070   2.15624
   D57        0.90336  -0.00014   0.00000  -0.01626  -0.01624   0.88713
   D58        3.00257  -0.00013   0.00000  -0.01378  -0.01376   2.98881
   D59       -1.17307  -0.00013   0.00000  -0.01564  -0.01561  -1.18868
   D60       -0.99468   0.00069   0.00000   0.01132   0.01171  -0.98297
   D61        0.74752   0.00030   0.00000  -0.09539  -0.09612   0.65140
   D62       -2.99524   0.00044   0.00000   0.02927   0.02998  -2.96526
   D63        1.90622   0.00037   0.00000   0.01208   0.01238   1.91860
   D64       -2.63476  -0.00001   0.00000  -0.09462  -0.09545  -2.73022
   D65       -0.09434   0.00012   0.00000   0.03003   0.03065  -0.06369
         Item               Value     Threshold  Converged?
 Maximum Force            0.018273     0.000450     NO 
 RMS     Force            0.002165     0.000300     NO 
 Maximum Displacement     0.147434     0.001800     NO 
 RMS     Displacement     0.041123     0.001200     NO 
 Predicted change in Energy= 1.725533D-03
 GradGradGradGradGradGradGradGradGradGradGradGradGradGradGradGradGradGrad

                          Input orientation:                          
 ---------------------------------------------------------------------
 Center     Atomic      Atomic             Coordinates (Angstroms)
 Number     Number       Type             X           Y           Z
 ---------------------------------------------------------------------
      1          6           0       -1.235597    0.417655    1.016155
      2          6           0       -0.351528   -0.649393    1.296297
      3          1           0       -1.822047    0.953327    1.751200
      4          1           0       -0.204723   -1.085075    2.277140
      5          6           0       -1.802248    0.180163   -0.326952
      6          8           0       -2.659130    0.757696   -0.938122
      7          6           0       -0.361117   -1.541536    0.105365
      8          8           0        0.187512   -2.594512   -0.084610
      9          8           0       -1.133277   -0.928016   -0.876573
     10          6           0        1.760373    0.600150   -0.128638
     11          6           0        0.924555    1.676096   -0.429789
     12          1           0        0.834127    1.974986   -1.472402
     13          6           0        0.003077    2.192245    0.486650
     14          1           0        0.251394    2.249205    1.541419
     15          6           0        1.677636    0.009590    1.150622
     16          1           0        1.529479    0.635558    2.025188
     17          1           0        2.233374   -0.905272    1.341640
     18          1           0       -0.734304    2.916465    0.153204
     19          6           0        2.547770   -0.095365   -1.215098
     20          1           0        2.240745   -1.144727   -1.305139
     21          1           0        2.402897    0.385918   -2.186737
     22          1           0        3.621294   -0.090578   -0.989777
 ---------------------------------------------------------------------
                    Distance matrix (angstroms):
                    1          2          3          4          5
     1  C    0.000000
     2  C    1.413736   0.000000
     3  H    1.082201   2.222178   0.000000
     4  H    2.216074   1.083247   2.654700   0.000000
     5  C    1.476967   2.329740   2.217406   3.306691   0.000000
     6  O    2.441571   3.506787   2.823373   4.444978   1.200550
     7  C    2.330812   1.488062   3.326775   2.224730   2.286483
     8  O    3.508571   2.445599   4.471653   2.830214   3.422965
     9  O    2.324590   2.325968   3.304398   3.291320   1.406295
    10  C    3.212428   2.837592   4.061066   3.534028   3.592769
    11  C    2.888024   3.164753   3.580912   4.028250   3.111888
    12  H    3.591929   3.994852   4.300077   4.949975   3.388794
    13  C    2.227971   2.975934   2.542652   3.740302   2.823051
    14  H    2.416945   2.970770   2.454071   3.444815   3.462541
    15  C    2.944745   2.138455   3.674114   2.451654   3.784430
    16  H    2.951486   2.391771   3.377687   2.455914   4.103699
    17  H    3.726907   2.597932   4.479795   2.617595   4.499846
    18  H    2.690730   3.764111   2.755120   4.561128   2.976307
    19  C    4.422165   3.875562   5.384606   4.555378   4.448300
    20  H    4.462555   3.705766   5.499937   4.337810   4.365544
    21  H    4.847490   4.559633   5.803400   5.374914   4.602649
    22  H    5.279342   4.617545   6.183255   5.128369   5.470598
                    6          7          8          9         10
     6  O    0.000000
     7  C    3.414117   0.000000
     8  O    4.479860   1.202432   0.000000
     9  O    2.274564   1.391704   2.269118   0.000000
    10  C    4.495786   3.023623   3.561137   3.356771   0.000000
    11  C    3.734255   3.506066   4.347467   3.348983   1.395329
    12  H    3.737659   4.035330   4.819169   3.557121   2.133966
    13  C    3.342940   3.770827   4.824251   3.589667   2.449783
    14  H    4.104129   4.099652   5.109760   4.225960   2.790250
    15  C    4.871350   2.766780   3.244629   3.590245   1.411422
    16  H    5.132306   3.464075   4.084786   4.237363   2.166457
    17  H    5.647953   2.943568   3.012187   4.031789   2.156790
    18  H    3.091315   4.473850   5.592599   3.999957   3.415870
    19  C    5.283582   3.506659   3.618640   3.789197   1.511334
    20  H    5.269031   2.986078   2.794161   3.408028   2.158589
    21  H    5.226985   4.075363   4.267298   3.993429   2.166680
    22  H    6.337662   4.377695   4.345097   4.829085   2.163721
                   11         12         13         14         15
    11  C    0.000000
    12  H    1.088373   0.000000
    13  C    1.398354   2.139096   0.000000
    14  H    2.160384   3.081865   1.085101   0.000000
    15  C    2.417038   3.384456   2.830015   2.683796   0.000000
    16  H    2.734148   3.809294   2.668384   2.114566   1.085658
    17  H    3.393292   4.262935   3.911501   3.730802   1.087339
    18  H    2.151792   2.447234   1.086008   1.828655   3.906689
    19  C    2.527768   2.699839   3.821593   4.285877   2.522852
    20  H    3.233517   3.426246   4.399210   4.855840   2.771336
    21  H    2.633803   2.344451   4.021064   4.690411   3.435927
    22  H    3.272174   3.502539   4.525771   4.820556   2.892948
                   16         17         18         19         20
    16  H    0.000000
    17  H    1.826709   0.000000
    18  H    3.719082   4.982486   0.000000
    19  C    3.474280   2.700315   4.659977   0.000000
    20  H    3.842706   2.657599   5.241275   1.097056   0.000000
    21  H    4.308769   3.761031   4.660582   1.093939   1.773804
    22  H    3.740719   2.832940   5.414789   1.096926   1.765389
                   21         22
    21  H    0.000000
    22  H    1.773204   0.000000
 Stoichiometry    C9H10O3
 Framework group  C1[X(C9H10O3)]
 Deg. of freedom    60
 Full point group                 C1      NOp   1
 Largest Abelian subgroup         C1      NOp   1
 Largest concise Abelian subgroup C1      NOp   1
                         Standard orientation:                         
 ---------------------------------------------------------------------
 Center     Atomic      Atomic             Coordinates (Angstroms)
 Number     Number       Type             X           Y           Z
 ---------------------------------------------------------------------
      1          6           0        1.256810   -0.395882    1.007018
      2          6           0        0.336393    0.631366    1.317250
      3          1           0        1.863098   -0.930609    1.726490
      4          1           0        0.176275    1.034526    2.309846
      5          6           0        1.812204   -0.101845   -0.329586
      6          8           0        2.687645   -0.631929   -0.957228
      7          6           0        0.312396    1.555661    0.151302
      8          8           0       -0.273196    2.593539   -0.009111
      9          8           0        1.103718    0.996831   -0.847877
     10          6           0       -1.733104   -0.651975   -0.139509
     11          6           0       -0.860636   -1.689229   -0.470940
     12          1           0       -0.761778   -1.956017   -1.521467
     13          6           0        0.080136   -2.197668    0.430075
     14          1           0       -0.164007   -2.292256    1.483114
     15          6           0       -1.668682   -0.094224    1.155434
     16          1           0       -1.496980   -0.738381    2.012307
     17          1           0       -2.255803    0.794967    1.372076
     18          1           0        0.841828   -2.886117    0.076130
     19          6           0       -2.546496    0.045030   -1.205674
     20          1           0       -2.276644    1.106603   -1.267106
     21          1           0       -2.386693   -0.404007   -2.190323
     22          1           0       -3.618758   -0.003641   -0.979547
 ---------------------------------------------------------------------
 Rotational constants (GHZ):           1.2324801           0.9815501           0.7492529
 Standard basis: 6-31G(d) (6D, 7F)
 There are   200 symmetry adapted cartesian basis functions of A   symmetry.
 There are   200 symmetry adapted basis functions of A   symmetry.
   200 basis functions,   376 primitive gaussians,   200 cartesian basis functions
    44 alpha electrons       44 beta electrons
       nuclear repulsion energy       716.4911487992 Hartrees.
 NAtoms=   22 NActive=   22 NUniq=   22 SFac= 1.00D+00 NAtFMM=   60 NAOKFM=F Big=F
 Integral buffers will be    131072 words long.
 Raffenetti 2 integral format.
 Two-electron integral symmetry is turned on.
 One-electron integrals computed using PRISM.
 NBasis=   200 RedAO= T EigKep=  1.15D-03  NBF=   200
 NBsUse=   200 1.00D-06 EigRej= -1.00D+00 NBFU=   200
 Initial guess from the checkpoint file:  "DATS_opt.chk"
 B after Tr=     0.000000    0.000000   -0.000000
         Rot=    0.999750   -0.009559    0.000720   -0.020224 Ang=  -2.56 deg.
 ExpMin= 1.61D-01 ExpMax= 5.48D+03 ExpMxC= 8.25D+02 IAcc=3 IRadAn=         5 AccDes= 0.00D+00
 Harris functional with IExCor=  402 and IRadAn=       5 diagonalized for initial guess.
 HarFok:  IExCor=  402 AccDes= 0.00D+00 IRadAn=         5 IDoV= 1 UseB2=F ITyADJ=14
 ICtDFT=  3500011 ScaDFX=  1.000000  1.000000  1.000000  1.000000
 FoFCou: FMM=F IPFlag=           0 FMFlag=      100000 FMFlg1=           0
         NFxFlg=           0 DoJE=T BraDBF=F KetDBF=T FulRan=T
         wScrn=  0.000000 ICntrl=       500 IOpCl=  0 I1Cent=   200000004 NGrid=           0
         NMat0=    1 NMatS0=      1 NMatT0=    0 NMatD0=    1 NMtDS0=    0 NMtDT0=    0
 Petite list used in FoFCou.
 Requested convergence on RMS density matrix=1.00D-08 within 128 cycles.
 Requested convergence on MAX density matrix=1.00D-06.
 Requested convergence on             energy=1.00D-06.
 No special actions if energy rises.
 Integral accuracy reduced to 1.0D-05 until final iterations.
 Initial convergence to 1.0D-05 achieved.  Increase integral accuracy.
 SCF Done:  E(RB3LYP) =  -574.577841809     A.U. after   13 cycles
            NFock= 13  Conv=0.79D-08     -V/T= 2.0093
 Calling FoFJK, ICntrl=      2127 FMM=F ISym2X=0 I1Cent= 0 IOpClX= 0 NMat=1 NMatS=1 NMatT=0.
 ***** Axes restored to original set *****
 -------------------------------------------------------------------
 Center     Atomic                   Forces (Hartrees/Bohr)
 Number     Number              X              Y              Z
 -------------------------------------------------------------------
      1        6           0.004877417    0.008593190   -0.002500652
      2        6           0.012278927    0.002970412   -0.000729321
      3        1          -0.000049834    0.000047722    0.000223118
      4        1          -0.000399055   -0.000325481   -0.000041947
      5        6          -0.000148940    0.000233274   -0.000217157
      6        8          -0.000166302    0.000055503   -0.000015657
      7        6          -0.000452913   -0.000201814    0.000145179
      8        8           0.000065962   -0.000166076    0.000042180
      9        8           0.000056538   -0.000077971   -0.000077691
     10        6           0.000394034    0.000185226   -0.000461719
     11        6           0.000575058   -0.000539545   -0.000906071
     12        1           0.000136255    0.000093523    0.000014281
     13        6          -0.006662380   -0.008038535    0.003194230
     14        1           0.000034838    0.000256965    0.000170514
     15        6          -0.011401773   -0.003750716    0.001121728
     16        1           0.000481565    0.000228585   -0.000076791
     17        1           0.000084769    0.000088761    0.000125935
     18        1           0.000138254    0.000247403   -0.000087279
     19        6           0.000088587    0.000099699    0.000053018
     20        1           0.000042033    0.000002301    0.000017022
     21        1          -0.000004037    0.000007174    0.000014875
     22        1           0.000030995   -0.000009600   -0.000007793
 -------------------------------------------------------------------
 Cartesian Forces:  Max     0.012278927 RMS     0.002838433

 GradGradGradGradGradGradGradGradGradGradGradGradGradGradGradGradGradGrad
 Berny optimization.
 FormGI is forming the generalized inverse of G from B-inverse, IUseBI=4.
 Internal  Forces:  Max     0.010730879 RMS     0.001300421
 Search for a saddle point.
 Step number   2 out of a maximum of  132
 All quantities printed in internal units (Hartrees-Bohrs-Radians)
 Swapping is turned off.
 Update second derivatives using D2CorX and points    1    2
 ITU=  0  0
     Eigenvalues ---   -0.03701   0.00023   0.00128   0.00529   0.00898
     Eigenvalues ---    0.01168   0.01267   0.01591   0.01699   0.01975
     Eigenvalues ---    0.02144   0.02453   0.03084   0.03102   0.03940
     Eigenvalues ---    0.04023   0.04228   0.04479   0.04938   0.05182
     Eigenvalues ---    0.05612   0.05782   0.05809   0.05922   0.06090
     Eigenvalues ---    0.06173   0.06801   0.07421   0.12294   0.12610
     Eigenvalues ---    0.12976   0.14189   0.14711   0.15101   0.15452
     Eigenvalues ---    0.17215   0.19584   0.20280   0.24034   0.25559
     Eigenvalues ---    0.27434   0.29426   0.31363   0.33175   0.33457
     Eigenvalues ---    0.34024   0.34766   0.34943   0.35635   0.35765
     Eigenvalues ---    0.36072   0.36338   0.36397   0.36724   0.37022
     Eigenvalues ---    0.38980   0.39644   0.48623   0.90879   0.92387
 Eigenvectors required to have negative eigenvalues:
                          R7        R4        D61       D64       D49
   1                   -0.59024  -0.57682   0.17958   0.16748  -0.16566
                          D52       D2        D4        D12       R1
   1                   -0.16093  -0.13059   0.13037   0.11528   0.11393
 RFO step:  Lambda0=4.092075182D-03 Lambda=-1.37001752D-03.
 Linear search not attempted -- option 19 set.
 Maximum step size (   0.300) exceeded in Quadratic search.
    -- Step size scaled by   0.893
 Iteration  1 RMS(Cart)=  0.03308570 RMS(Int)=  0.00495901
 Iteration  2 RMS(Cart)=  0.00789272 RMS(Int)=  0.00074496
 Iteration  3 RMS(Cart)=  0.00001282 RMS(Int)=  0.00074492
 Iteration  4 RMS(Cart)=  0.00000000 RMS(Int)=  0.00074492
 Variable       Old X    -DE/DX   Delta X   Delta X   Delta X     New X
                                 (Linear)    (Quad)   (Total)
    R1        2.67157   0.00151   0.00000  -0.02818  -0.02776   2.64382
    R2        2.04506   0.00020   0.00000  -0.00278  -0.00278   2.04228
    R3        2.79106   0.00018   0.00000  -0.01622  -0.01563   2.77544
    R4        4.21026  -0.00990   0.00000   0.25631   0.25607   4.46632
    R5        2.04704   0.00004   0.00000  -0.00008  -0.00008   2.04696
    R6        2.81203   0.00002   0.00000   0.00654   0.00638   2.81841
    R7        4.04109  -0.01073   0.00000  -0.02679  -0.02676   4.01433
    R8        2.26871   0.00015   0.00000   0.00078   0.00078   2.26949
    R9        2.65751   0.00038   0.00000   0.01318   0.01280   2.67031
   R10        2.27227   0.00017   0.00000   0.00099   0.00099   2.27325
   R11        2.62994   0.00036   0.00000  -0.01081  -0.01161   2.61833
   R12        2.63679  -0.00044   0.00000   0.02303   0.02336   2.66015
   R13        2.66720   0.00026   0.00000  -0.01840  -0.01803   2.64918
   R14        2.85601  -0.00002   0.00000  -0.00008  -0.00008   2.85592
   R15        2.05673   0.00000   0.00000   0.00020   0.00020   2.05692
   R16        2.64251   0.00100   0.00000  -0.03335  -0.03337   2.60913
   R17        2.05054   0.00019   0.00000  -0.00337  -0.00337   2.04717
   R18        2.05226   0.00010   0.00000  -0.00115  -0.00115   2.05111
   R19        2.05160   0.00000   0.00000  -0.00090  -0.00090   2.05069
   R20        2.05477  -0.00001   0.00000   0.00015   0.00015   2.05492
   R21        2.07313  -0.00002   0.00000  -0.00038  -0.00038   2.07276
   R22        2.06725  -0.00001   0.00000  -0.00008  -0.00008   2.06716
   R23        2.07289   0.00003   0.00000   0.00015   0.00015   2.07304
    A1        2.18693  -0.00012   0.00000   0.03233   0.02906   2.21599
    A2        1.87418  -0.00005   0.00000   0.01336   0.01167   1.88585
    A3        1.87612   0.00042   0.00000  -0.03079  -0.03116   1.84496
    A4        2.08213   0.00011   0.00000   0.02493   0.02072   2.10285
    A5        1.63930  -0.00025   0.00000  -0.04945  -0.04799   1.59131
    A6        1.69638  -0.00003   0.00000  -0.04663  -0.04617   1.65021
    A7        2.17456  -0.00017   0.00000   0.00760   0.00743   2.18198
    A8        1.86491  -0.00015   0.00000  -0.00311  -0.00232   1.86259
    A9        1.92548   0.00046   0.00000   0.02270   0.02219   1.94767
   A10        2.07648   0.00005   0.00000   0.00401   0.00346   2.07994
   A11        1.62785  -0.00012   0.00000  -0.03193  -0.03148   1.59637
   A12        1.70757   0.00014   0.00000  -0.00259  -0.00291   1.70466
   A13        2.29084   0.00001   0.00000   0.01025   0.00969   2.30053
   A14        1.87508  -0.00012   0.00000  -0.00509  -0.00410   1.87099
   A15        2.11723   0.00011   0.00000  -0.00503  -0.00558   2.11165
   A16        2.27643  -0.00007   0.00000  -0.00588  -0.00582   2.27061
   A17        1.87964   0.00000   0.00000  -0.00029  -0.00040   1.87924
   A18        2.12671   0.00007   0.00000   0.00615   0.00620   2.13292
   A19        1.91300   0.00028   0.00000  -0.00408  -0.00440   1.90860
   A20        2.07504  -0.00043   0.00000   0.00220   0.00252   2.07756
   A21        2.10806   0.00020   0.00000  -0.00880  -0.00899   2.09908
   A22        2.08237   0.00022   0.00000   0.00492   0.00475   2.08711
   A23        2.05814   0.00012   0.00000  -0.00755  -0.00751   2.05064
   A24        2.13875  -0.00043   0.00000   0.00874   0.00864   2.14739
   A25        2.06201   0.00029   0.00000   0.00027   0.00030   2.06232
   A26        1.80095  -0.00008   0.00000  -0.03547  -0.03536   1.76558
   A27        1.50878  -0.00012   0.00000  -0.08297  -0.08251   1.42627
   A28        1.79942   0.00046   0.00000   0.00163   0.00219   1.80161
   A29        2.10090   0.00015   0.00000   0.01992   0.01563   2.11654
   A30        2.08559  -0.00022   0.00000   0.01836   0.01714   2.10273
   A31        2.00295  -0.00003   0.00000   0.01434   0.01229   2.01524
   A32        1.81966   0.00024   0.00000   0.00663   0.00677   1.82643
   A33        1.56410   0.00006   0.00000  -0.01157  -0.01164   1.55247
   A34        1.78619   0.00014   0.00000  -0.00792  -0.00796   1.77823
   A35        2.09080   0.00001   0.00000   0.00428   0.00428   2.09508
   A36        2.07294  -0.00021   0.00000   0.00100   0.00098   2.07392
   A37        1.99693  -0.00002   0.00000   0.00103   0.00095   1.99788
   A38        1.93199   0.00002   0.00000   0.00255   0.00254   1.93453
   A39        1.94662  -0.00002   0.00000   0.00085   0.00085   1.94747
   A40        1.93928   0.00002   0.00000  -0.00290  -0.00290   1.93638
   A41        1.88690   0.00001   0.00000   0.00048   0.00047   1.88737
   A42        1.87017  -0.00003   0.00000  -0.00001  -0.00001   1.87017
   A43        1.88613  -0.00000   0.00000  -0.00099  -0.00099   1.88514
    D1        0.06132   0.00016   0.00000   0.09429   0.09496   0.15629
    D2        2.60010  -0.00024   0.00000   0.10869   0.10953   2.70963
    D3       -1.84502   0.00004   0.00000   0.11371   0.11436  -1.73066
    D4       -2.52537   0.00023   0.00000  -0.03954  -0.03997  -2.56534
    D5        0.01341  -0.00017   0.00000  -0.02514  -0.02541  -0.01200
    D6        1.85147   0.00010   0.00000  -0.02012  -0.02057   1.83090
    D7        1.94849   0.00012   0.00000   0.01970   0.01927   1.96775
    D8       -1.79592  -0.00029   0.00000   0.03410   0.03384  -1.76209
    D9        0.04214  -0.00001   0.00000   0.03911   0.03867   0.08081
   D10        3.03401  -0.00014   0.00000   0.00695   0.00725   3.04126
   D11       -0.11660   0.00007   0.00000   0.02260   0.02289  -0.09371
   D12        0.40800  -0.00000   0.00000  -0.12045  -0.12068   0.28732
   D13       -2.74261   0.00021   0.00000  -0.10481  -0.10503  -2.84765
   D14       -1.31331   0.00028   0.00000  -0.04072  -0.04095  -1.35426
   D15        1.81926   0.00049   0.00000  -0.02508  -0.02530   1.79396
   D16        0.82605   0.00017   0.00000  -0.03191  -0.03099   0.79506
   D17       -1.27501   0.00005   0.00000  -0.03059  -0.03116  -1.30618
   D18        3.00789   0.00009   0.00000  -0.02651  -0.02647   2.98143
   D19        3.07706   0.00007   0.00000  -0.02961  -0.02889   3.04817
   D20        0.97599  -0.00005   0.00000  -0.02828  -0.02906   0.94693
   D21       -1.02428  -0.00001   0.00000  -0.02420  -0.02436  -1.04865
   D22       -1.10821   0.00013   0.00000  -0.02052  -0.02007  -1.12828
   D23        3.07391   0.00001   0.00000  -0.01919  -0.02024   3.05366
   D24        1.07363   0.00005   0.00000  -0.01511  -0.01554   1.05809
   D25       -3.07658   0.00027   0.00000   0.01997   0.01984  -3.05674
   D26        0.09552   0.00023   0.00000   0.02047   0.02050   0.11602
   D27       -0.49772  -0.00019   0.00000   0.03507   0.03518  -0.46254
   D28        2.67438  -0.00023   0.00000   0.03557   0.03584   2.71022
   D29        1.21557  -0.00024   0.00000  -0.00271  -0.00239   1.21318
   D30       -1.89553  -0.00028   0.00000  -0.00221  -0.00173  -1.89725
   D31       -0.92871  -0.00027   0.00000  -0.04452  -0.04488  -0.97359
   D32        1.17842  -0.00020   0.00000  -0.04249  -0.04289   1.13554
   D33       -3.09867  -0.00019   0.00000  -0.04493  -0.04528   3.13923
   D34        3.10526  -0.00018   0.00000  -0.04489  -0.04477   3.06049
   D35       -1.07080  -0.00012   0.00000  -0.04286  -0.04277  -1.11357
   D36        0.93529  -0.00011   0.00000  -0.04530  -0.04516   0.89013
[...]
 0.00017820,0.00002830,0.00011693,0.00006594,0.00002987,0.00001793,0.00
 004133,-0.00023423,0.00020409,-0.00119429,0.00018565,-0.00032414,0.000
 54375,-0.00023882,0.00003510,-0.00056167,0.00004039,0.00007732,0.00015
 802,-0.00006218,-0.00016691,0.00046159,0.00112106,0.00043954,-0.005849
 83,-0.02210261,0.07315649,-0.31287053,0.02042871,-0.07621724,0.3341093
 5,0.00113634,0.05195883,-0.01057818,0.03508758,-0.01572738,0.00213914,
 -0.00710177,-0.00870953,0.00116912,-0.00429135,-0.00130489,0.00008734,
 -0.01156329,-0.00600763,-0.00966271,0.00170820,-0.00154502,0.00115811,
 -0.00113772,-0.00075388,0.00693456,0.00094995,-0.00112216,-0.00124752,
 -0.00195354,0.00403237,0.00127945,-0.03670154,0.04842415,-0.01548340,-
 0.17738377,0.07786738,0.12740434,0.00761034,0.00130773,-0.00217127,0.4
 3728903,0.01347516,0.02920443,-0.00875453,0.01880905,-0.01473041,0.002
 07599,-0.00280782,-0.00273189,0.00036946,-0.00223435,-0.00132732,-0.00
 046325,-0.01186463,-0.00562724,-0.00751501,0.00365284,-0.00152153,0.00
 249744,0.00039695,-0.00234474,0.00429713,0.00034232,-0.00025335,-0.000
 90995,-0.00037203,0.00318097,0.00034459,0.01502560,-0.00429325,-0.0220
 1272,0.12496055,-0.13579626,-0.09081984,-0.00261008,0.00562428,0.00453
 927,-0.31281594,0.35487122,-0.00968438,-0.03841507,-0.00144691,-0.0251
 8147,0.01424845,-0.00303936,0.00608070,0.00588572,-0.00151047,0.003142
 28,0.00198677,0.00021060,0.00074517,-0.00055951,0.00493199,-0.00195335
 ,-0.00041219,-0.00092385,-0.00044379,0.00118131,-0.00657040,-0.0005601
 9,0.00117364,0.00150279,0.00237834,-0.00332950,-0.00097215,0.01617465,
 -0.02681407,0.03602716,0.10791852,-0.05460620,-0.24568774,0.02078871,-
 0.01566119,-0.01844161,-0.00384989,0.04209060,0.67649144,-0.00505945,-
 0.01086701,-0.00186094,-0.00390655,0.00227798,-0.00037172,-0.00029326,
 -0.00016920,-0.00024558,0.00050952,0.00022121,0.00003964,-0.00021081,0
 .00081206,0.00097056,-0.00051889,-0.00052571,-0.00021083,-0.00009740,0
 .00028148,-0.00128966,-0.00014952,0.00012459,0.00029831,0.00061287,-0.
 00055497,0.00013681,-0.00010942,-0.00476372,0.00133838,0.00376925,0.00
 183118,0.02409934,0.00043715,0.00487360,0.00339810,-0.04993644,0.01725
 103,-0.06225486,0.05487451,-0.00709984,-0.01421885,-0.00174457,-0.0058
 8946,0.00205049,-0.00075248,0.00047660,0.00065602,-0.00040283,0.000498
 81,0.00018036,0.00007716,0.00087943,-0.00014120,0.00173115,-0.00070484
 ,0.00025469,-0.00049166,-0.00023659,0.00043641,-0.00115057,-0.00008889
 ,0.00023058,0.00031596,0.00054065,-0.00058738,-0.00015284,0.00020236,-
 0.00634865,0.00459582,-0.01124167,0.01031679,-0.00754650,0.00476976,0.
 00347974,0.00002733,0.02342508,-0.03978947,-0.00526240,-0.01379991,0.0
 3987835,0.00104954,0.00060219,0.00030162,0.00013261,0.00023301,0.00055
 880,0.00021482,0.00075443,0.00076652,-0.00004321,-0.00000828,0.0000039
 2,-0.00024046,0.00077853,-0.00046330,0.00021432,-0.00033204,0.00024092
 ,0.00003697,-0.00013935,-0.00041639,-0.00000359,-0.00000613,0.00007369
 ,-0.00005138,-0.00010789,0.00046167,-0.00073504,0.00281319,-0.00103516
 ,-0.00286005,0.00164432,-0.01822669,0.00192393,-0.00248286,-0.00080095
 ,-0.05454407,0.00309623,-0.33456662,0.05568391,-0.00660843,0.35619688,
 -0.01883283,0.03854030,-0.01535826,0.06807368,0.00357411,0.00465691,-0
 .00268254,-0.00339056,0.00000470,-0.01110673,-0.00627909,0.00082948,-0
 .00497484,0.00357164,0.00980411,-0.00101079,0.00083578,-0.00314803,-0.
 00841685,-0.01598279,-0.00956702,-0.00083190,0.00472714,0.00092607,0.0
 0500599,-0.00277007,0.00282692,-0.07629957,0.04763024,-0.02090562,0.02
 590579,-0.01542698,-0.02499572,0.00144818,0.00612682,-0.00048943,-0.02
 387869,-0.00860246,0.01459543,0.00207924,0.00388110,-0.00105613,0.1934
 8848,-0.00320230,0.02258839,-0.00796490,0.03643195,-0.01664905,0.00297
 156,-0.00091615,-0.00206835,0.00065209,-0.00907538,-0.00410219,0.00008
 147,-0.00091108,-0.00012514,0.00582304,-0.00078763,0.00093954,-0.00158
 815,-0.00718304,-0.00866559,-0.00365338,-0.00013486,-0.00000756,-0.000
 84953,0.00212619,-0.00121241,0.00109553,0.00814438,-0.12432398,0.09011
 334,0.02344600,-0.03170812,0.02483666,0.00667396,-0.00091293,0.0011490
 2,-0.00982144,-0.00957927,0.01345161,0.00312961,0.00137167,0.00058207,
 -0.23616125,0.56322717,0.00795762,-0.02602639,0.00910087,-0.04156032,0
 .00230146,-0.01521370,0.00212918,0.00241039,-0.00018588,0.01062829,0.0
 0579505,-0.00091846,0.00146102,-0.00214865,-0.00836887,0.00146277,-0.0
 0101608,0.00297485,-0.00257026,-0.00159862,0.00264005,-0.00165008,0.00
 029048,0.00006253,-0.00190280,0.00315451,-0.00230138,0.02941842,0.0811
 1844,-0.32347352,-0.03175261,0.04220800,0.00271933,0.00002640,-0.00024
 808,0.00088780,0.01932352,0.00562688,-0.01673192,-0.00004852,-0.004036
 61,0.00122453,-0.00720277,-0.02271193,0.68746991,0.00166585,-0.0065828
 3,0.00169771,-0.01808356,-0.00733192,-0.00636723,0.00023603,0.00048734
 ,-0.00000047,0.00097745,0.00030650,-0.00063271,0.00072412,-0.00083474,
 -0.00146640,0.00023458,-0.00013743,0.00062500,-0.00074059,0.00099044,0
 .00164085,0.00010783,-0.00080075,-0.00032747,-0.00041894,0.00086743,-0
 .00061301,0.00312829,-0.00619761,0.01222524,-0.00778860,0.00333912,0.0
 0151103,-0.00033336,-0.00008578,0.00006348,0.00404419,0.00208611,-0.00
 438655,-0.00033382,0.00183034,-0.00015560,-0.03729575,0.05020028,0.036
 55376,0.04981608,0.00149261,-0.00241865,0.00146660,-0.00749377,-0.0026
 5965,-0.00320056,0.00016230,0.00024956,-0.00002653,0.00014019,-0.00023
 349,0.00004221,0.00042419,-0.00039765,-0.00136628,0.00001036,-0.000105
 54,0.00040203,0.00072158,-0.00085696,0.00079712,-0.00078876,0.00004370
 ,-0.00025017,-0.00047283,0.00071316,0.00008470,-0.00302414,0.01025272,
 0.01377842,-0.00163950,-0.00034706,-0.00053315,-0.00058611,-0.00018620
 ,-0.00020215,0.00253254,0.00050366,0.00182235,0.00121600,-0.00113453,-
 0.00014267,0.04970371,-0.14388391,-0.13512268,-0.04706742,0.15011766,-
 0.00004040,-0.00070747,0.00065139,-0.00170542,0.00006154,-0.00028129,-
 0.00006527,-0.00006522,0.00002832,0.00074318,0.00049535,0.00074126,0.0
 0008285,-0.00005818,-0.00029940,0.00001850,0.00002263,0.00007405,0.000
 46082,0.00000354,-0.00002440,-0.00006983,0.00012014,0.00011924,-0.0001
 8175,0.00006337,0.00027196,0.00847194,-0.01829196,-0.01839050,0.001030
 16,-0.00028978,0.00093935,0.00006749,0.00000911,0.00009593,0.00042931,
 -0.00031568,-0.00030670,-0.00101188,0.00101987,0.00050532,0.04840747,-
 0.12903750,-0.23967011,-0.05506602,0.13899322,0.25149621,-0.00133962,-
 0.00042458,-0.00017830,-0.00383093,0.00433843,-0.00165608,-0.00014426,
 0.00001582,-0.00013837,0.00008458,0.00035513,0.00036444,-0.00033068,0.
 00049536,0.00068026,0.00001488,0.00002067,-0.00034189,-0.00181132,0.00
 379406,0.00030245,0.00200496,-0.00121207,0.00044178,0.00037872,-0.0007
 4387,0.00015053,0.00485158,-0.00329741,0.00056821,0.00414296,0.0032239
 9,0.00310771,0.00036095,-0.00045205,0.00012821,-0.00173978,0.00002597,
 -0.00058431,-0.00018928,-0.00038025,0.00017292,-0.11301119,0.13509141,
 -0.02705031,-0.00070441,0.00341641,-0.00091552,0.11317715,-0.00052709,
 -0.00077050,0.00007594,-0.00291295,0.00238521,-0.00067429,-0.00009105,
 0.00005408,-0.00006194,0.00039220,0.00049643,-0.00014667,-0.00003659,0
 .00007855,-0.00011109,-0.00002950,0.00006222,-0.00013531,-0.00025145,0
 .00132695,0.00037944,0.00036502,-0.00035348,0.00009621,-0.00014549,0.0
 0000356,-0.00005794,0.00753965,-0.00801206,0.00012729,0.00084265,0.002
 30378,0.00333419,0.00048504,-0.00050519,0.00014655,-0.00087941,0.00026
 619,-0.00053862,-0.00024062,0.00014762,0.00023517,0.13129663,-0.255217
 30,0.04380062,0.00780363,-0.00993857,0.00461343,-0.14191659,0.26744957
 ,-0.00004558,-0.00040326,0.00005383,-0.00102224,-0.00061651,-0.0002640
 0,-0.00005228,-0.00002700,-0.00002710,0.00025734,-0.00006788,-0.000079
 90,0.00002518,0.00030746,0.00019852,0.00003579,-0.00008911,-0.00001005
 ,-0.00092336,0.00154632,0.00023435,0.00084134,-0.00052044,-0.00020709,
 0.00014740,-0.00041071,0.00001775,-0.01723201,0.02473546,-0.00170042,0
 .00172274,0.00223947,-0.00491060,-0.00097828,0.00119998,-0.00017850,0.
 00078974,-0.00062328,-0.00100325,-0.00001496,0.00030714,0.00058356,-0.
 02188634,0.04216027,-0.06722446,0.01330122,-0.01934146,0.00693423,0.02
 575696,-0.05022977,0.06614065,0.00238086,-0.00190175,0.00051917,-0.000
 18041,-0.00086203,0.00022279,0.00030856,0.00024105,0.00009421,-0.00002
 347,-0.00020029,-0.00006182,0.00158210,-0.00092506,0.00117469,-0.00035
 182,0.00098396,-0.00024944,0.00005684,-0.00005629,0.00035427,0.0001277
 9,-0.00013909,-0.00019652,-0.00025247,0.00000855,-0.00010313,0.0019571
 4,0.00309185,0.00479088,-0.00921009,0.01445431,-0.00911627,-0.00158671
 ,-0.00286909,-0.00059550,-0.17689025,0.14076282,-0.06113309,-0.0007981
 6,0.00315729,0.00020035,-0.00018794,-0.00177731,0.00023964,-0.00027055
 ,-0.00011371,0.00015284,0.00036030,0.00020992,-0.00011673,0.18363873,0
 .00188471,-0.00186265,0.00022269,0.00027459,-0.00105956,0.00020579,-0.
 00001161,0.00004506,0.00028500,-0.00011317,-0.00022912,-0.00009891,0.0
 0281480,-0.00236445,0.00197805,-0.00070263,0.00214906,-0.00080431,0.00
 030895,-0.00018405,0.00088909,-0.00001813,-0.00002723,-0.00024966,-0.0
 0073788,0.00049832,-0.00026346,0.00461184,0.00418553,-0.00006609,0.006
 23269,-0.00398286,0.00416339,-0.00299845,-0.00232892,-0.00079885,0.144
 99786,-0.17511116,0.06069757,-0.00079660,0.00322770,-0.00071031,-0.000
 59347,-0.00149771,-0.00031919,-0.00043707,0.00004764,0.00020110,0.0003
 0259,0.00017752,-0.00005079,-0.15492502,0.17854677,-0.00075698,-0.0010
 3222,-0.00001434,-0.00062228,0.00020630,-0.00009308,0.00011051,0.00018
 913,-0.00026445,0.00000539,-0.00002839,-0.00000473,0.00043349,-0.00029
 652,0.00069480,-0.00005530,0.00021916,-0.00044742,0.00016594,0.0000236
 3,-0.00005687,-0.00005939,0.00002344,0.00002079,-0.00008250,-0.0000554
 6,-0.00006174,0.00300796,-0.00090989,-0.00263001,0.01502054,-0.0170933
 8,0.01013008,-0.00029594,-0.00015443,0.00106455,-0.06325259,0.06445827
 ,-0.08791020,-0.01839583,0.02006314,-0.00563738,0.00010811,0.00043696,
 -0.00122585,0.00021829,0.00009031,0.00063334,-0.00015444,0.00006308,0.
 00037327,0.06415247,-0.06543231,0.08515654,-0.00100471,-0.00131437,0.0
 0008317,-0.00036521,0.00068610,-0.00056311,0.00005275,0.00005222,-0.00
 000282,0.00021149,0.00012683,0.00015847,0.00020507,0.00035043,0.000986
 51,-0.00008298,0.00002891,-0.00014451,-0.00078577,-0.00043031,-0.00025
 234,-0.00010510,0.00007384,0.00031754,0.00039873,-0.00053282,-0.000066
 44,-0.10490211,0.03083959,0.04609280,-0.00999484,0.01737635,0.01376563
 ,-0.00194534,-0.00280606,0.00081645,0.00564993,0.00405854,-0.00137849,
 -0.00080410,-0.00023620,0.00007030,0.00103831,0.00074039,0.00360354,0.
 00508096,0.00159655,-0.00182791,-0.00214502,-0.00119182,-0.00066761,-0
 .00035910,-0.00018216,0.00026259,0.53160925,0.00176974,-0.00083129,0.0
 0084689,-0.00254784,-0.00047673,-0.00035834,0.00010500,0.00015798,0.00
 000017,0.00035898,0.00027503,0.00003172,-0.00005718,-0.00020276,-0.001
 77985,0.00034111,-0.00022802,0.00060024,-0.00071404,0.00128765,0.00083
 603,0.00029162,-0.00052674,-0.00031127,-0.00039840,0.00011006,-0.00012
 705,0.03346402,-0.11070583,-0.03240667,0.01743482,-0.01064347,-0.02082
 142,-0.00175695,-0.00089115,-0.00150579,0.00407521,0.00014393,0.003124
 77,-0.00025160,-0.00000903,0.00000014,-0.00179122,0.01267783,0.0045437
 0,0.00118101,-0.00030769,0.00385667,-0.00192963,-0.00012110,0.00055691
 ,0.00058820,-0.00029188,-0.00063521,0.00913968,0.54871417,0.00023679,-
 0.00104027,0.00031086,-0.00237916,0.00015593,-0.00045639,0.00003091,0.
 00004934,-0.00003970,0.00025322,0.00007745,0.00000579,0.00035169,0.000
 08158,0.00049389,-0.00008718,-0.00000834,-0.00020693,0.00024250,0.0004
 4323,0.00020187,0.00007325,-0.00019325,0.00001455,-0.00005537,-0.00008
 428,-0.00037551,0.05222151,-0.03994752,-0.15069090,0.00022059,0.000786
 36,0.00607596,-0.00194022,0.00167269,0.00077047,-0.00117149,0.00230543
 ,-0.00117345,-0.00004983,-0.00007681,-0.00011223,0.01764746,-0.0129763
 9,-0.02931045,0.00200698,0.00218725,-0.00292555,-0.00028548,-0.0015691
 7,0.00150098,-0.00063083,0.00020351,0.00050902,0.03129183,-0.04387274,
 0.54376906,-0.00028260,0.00020915,-0.00040585,0.00004594,-0.00034234,0
 .00001404,-0.00004069,-0.00009955,-0.00003583,0.00000969,-0.00006777,-
 0.00004412,-0.00049467,0.00112184,0.00087718,0.00016021,-0.00031676,-0
 .00012076,-0.00225716,0.00211310,0.00144129,0.00123624,-0.00096622,-0.
 00094492,0.00087218,-0.00088938,-0.00021195,0.00238971,0.02043663,0.00
 036001,-0.00096711,0.00033108,0.00240270,0.00036967,0.00031666,0.00010
 590,-0.00136813,-0.00007180,-0.00020146,0.00010209,0.00001189,0.000002
 86,0.00045826,-0.00035660,-0.00046203,-0.00038691,-0.00005575,-0.00019
 898,0.00044807,-0.00008672,-0.00015148,-0.00016413,0.00010887,0.000129
 03,-0.05859058,-0.05992334,-0.00140235,0.06417757,-0.00011713,-0.00000
 260,0.00004355,0.00042429,0.00019179,-0.00002169,-0.00001909,-0.000017
 80,0.00002428,-0.00001574,0.00002994,0.00007307,0.00020930,-0.00026668
 ,-0.00005354,-0.00010552,0.00013820,-0.00002420,-0.00000308,0.00015295
 ,-0.00079855,-0.00026607,-0.00033625,0.00039388,0.00004755,-0.00013016
 ,0.00064549,0.00024898,-0.01418718,-0.00233446,-0.00037559,-0.00001173
 ,-0.00202072,-0.00032276,-0.00015342,-0.00013429,0.00087246,0.00001682
 ,0.00006448,-0.00010788,0.00000024,-0.00008124,-0.00017497,0.00047281,
 0.00214747,0.00041439,0.00033147,-0.00002484,-0.00067093,-0.00005162,-
 0.00054102,0.00014912,0.00001613,-0.00010708,-0.05964455,-0.29937669,-
 0.00237531,0.06314867,0.32485368,0.00070790,-0.00030054,0.00052107,-0.
 00051365,0.00011872,-0.00008493,0.00003619,0.00009932,0.00000095,0.000
 11088,0.00012310,0.00004798,0.00014412,-0.00056749,-0.00107853,0.00002
 947,0.00007712,0.00024714,0.00168224,-0.00180379,-0.00013709,-0.001240
 78,0.00092512,0.00016764,-0.00058832,0.00085751,-0.00017362,-0.0053144
 1,-0.02458474,-0.00019613,0.00000691,-0.00044148,-0.00265256,0.0001863
 8,-0.00023013,0.00010561,0.00100483,0.00013793,0.00053799,-0.00006563,
 -0.00001483,0.00006400,0.00154647,-0.00006853,0.00032381,-0.00017427,0
 .00017242,0.00043917,-0.00040973,0.00037760,-0.00046135,0.00018115,-0.
 00004136,-0.00012843,-0.00145044,-0.00314325,-0.05040101,-0.00218505,0
 .00514947,0.05112182,-0.00001551,-0.00007451,-0.00002075,-0.00004791,-
 0.00002836,-0.00014731,0.00000560,0.00000321,-0.00000678,0.00005575,0.
 00003580,-0.00001869,-0.00010124,0.00011293,0.00024975,0.00003580,-0.0
 0000551,-0.00008349,0.00028325,-0.00018552,0.00035972,-0.00015291,0.00
 004677,-0.00005968,0.00006854,0.00008604,-0.00032415,0.00251966,-0.008
 12094,0.01637756,0.00031260,-0.00098556,0.00110818,-0.00008046,0.00051
 629,-0.00024662,0.00003525,-0.00015608,-0.00012622,0.00013249,0.000008
 48,-0.00003931,-0.00063814,0.00273230,0.00267046,-0.00002908,-0.000247
 56,0.00105160,-0.00017169,-0.00009233,0.00000431,-0.00001853,-0.000043
 05,-0.00003302,-0.06280072,0.02411734,-0.05465196,0.00128283,-0.002774
 76,0.00795025,0.06491490,0.00006906,-0.00031362,0.00012784,-0.00040876
 ,0.00003374,-0.00015423,0.00001334,0.00002805,-0.00002249,0.00008295,0
 .00004011,-0.00000213,0.00001249,0.00008210,0.00004401,-0.00002029,-0.
 00002377,-0.00003727,0.00053853,-0.00072621,0.00036038,-0.00061443,0.0
 0023953,0.00005821,-0.00004344,0.00023573,-0.00035524,-0.00377629,0.00
 592075,-0.01494876,-0.00040545,0.00071057,-0.00131211,0.00041220,-0.00
 001104,0.00012663,-0.00012170,0.00020922,-0.00012294,-0.00005573,-0.00
 003884,-0.00006450,0.00222416,-0.00099752,-0.00163300,0.00016738,0.000
 34909,-0.00064834,-0.00013940,0.00007342,-0.00028118,-0.00004144,0.000
 02104,0.00003459,0.02332577,-0.09213918,0.09590790,0.00863735,-0.01011
 669,0.02906403,-0.02898190,0.09551795,0.00036522,-0.00045418,0.0003411
 8,-0.00082557,0.00005792,0.00008157,0.00005998,0.00006358,0.00000447,0
 .00004657,0.00003838,0.00005467,-0.00002472,-0.00011896,-0.00075889,0.
 00013542,-0.00010819,0.00030933,-0.00023423,-0.00001107,-0.00052472,0.
 00005966,0.00011301,0.00017448,-0.00011375,-0.00004105,0.00037749,-0.0
 0452085,0.01020036,-0.02055486,-0.00224726,0.00227368,0.00085641,0.000
 67881,-0.00097957,0.00081988,0.00064538,0.00011139,0.00030819,-0.00016
 891,0.00006870,0.00019961,0.00228237,-0.00338584,-0.00306250,0.0004513
 7,0.00062505,-0.00098164,-0.00008947,-0.00016925,0.00024407,-0.0000269
 3,-0.00002862,-0.00000901,-0.05143085,0.09271045,-0.26306953,0.0007575
 6,-0.00042537,0.00217402,0.05546812,-0.10196267,0.28638123,0.00022657,
 -0.00058027,0.00017656,-0.00122001,0.00013259,-0.00003509,0.00002468,0
 .00002078,-0.00000177,0.00011646,0.00006817,-0.00001773,0.00029769,-0.
 00006737,0.00011518,-0.00010856,0.00002403,-0.00005933,0.00016167,0.00
 018690,-0.00015718,-0.00009227,-0.00012153,0.00009931,-0.00007297,-0.0
 0003324,0.00000256,-0.01458772,0.00080381,0.00108666,-0.00077280,0.000
 23043,0.00174330,-0.00020678,-0.00033799,0.00004406,0.00043547,0.00068
 825,-0.00008575,-0.00011001,-0.00000412,0.00002631,0.00166985,0.001610
 55,-0.00127490,0.00037022,0.00007310,0.00016681,-0.00040594,-0.0005331
 3,0.00020884,-0.00011869,0.00002236,0.00009394,-0.30036091,-0.02349651
 ,-0.04192286,-0.00700047,-0.00091668,-0.00164450,-0.00559049,-0.000874
 40,-0.00126792,0.32734502,-0.00014545,0.00052661,-0.00006461,0.0009647
 4,0.00003289,0.00006544,-0.00005070,-0.00004462,0.00001915,-0.00011539
 ,-0.00003892,0.00003633,0.00006570,-0.00029949,-0.00013258,-0.00006745
 ,0.00011477,-0.00001322,0.00040599,-0.00063939,-0.00049964,-0.00035954
 ,0.00022999,0.00037835,-0.00015122,0.00019389,0.00024941,0.01769117,0.
 00018219,0.00044250,0.00100251,-0.00148824,-0.00159037,0.00039103,0.00
 037187,-0.00010655,-0.00068463,-0.00091483,-0.00000558,0.00011420,0.00
 003730,-0.00005559,-0.00093877,-0.00032639,0.00146424,-0.00019842,-0.0
 0013879,-0.00002101,0.00008695,0.00014473,0.00014939,0.00016404,0.0000
 2482,-0.00006311,-0.02205693,-0.04661509,-0.00172662,-0.03325899,-0.00
 155321,-0.00590620,0.01403690,0.00090557,0.00142226,0.02310427,0.04929
 433,0.00067977,0.00002330,0.00030979,-0.00017851,-0.00015691,0.0002399
 1,0.00005711,0.00008489,0.00000425,-0.00004074,0.00001861,0.00001423,-
 0.00006639,-0.00038877,-0.00123612,0.00012372,-0.00004652,0.00037345,0
 .00011937,-0.00040009,-0.00032060,-0.00021821,0.00021696,0.00023295,-0
 .00036379,0.00033863,0.00035796,0.02581910,0.00219327,0.00220635,0.000
 22374,-0.00043623,-0.00173039,0.00024616,-0.00004755,0.00029292,-0.000
 40372,-0.00053637,0.00027449,0.00002410,0.00003425,0.00007768,0.000973
 82,-0.00111748,0.00028341,-0.00110521,-0.00027601,-0.00005019,0.000130
 42,0.00044454,-0.00021449,0.00014779,0.00001768,-0.00009889,-0.0396643
 1,-0.00214610,-0.05489082,0.00027421,0.00040063,-0.00043754,-0.0294819
 6,-0.00417874,-0.00336545,0.04270351,0.00595800,0.05767711\\0.00000314
 ,-0.00000135,0.00000030,-0.00000049,0.00000130,0.00000120,0.00000011,-
 0.00000125,0.00000079,0.00000102,0.,-0.00000003,0.00000229,0.00000207,
 -0.00000137,-0.00000072,-0.00000125,0.00000058,0.00000078,-0.00000212,
 -0.00000096,0.00000179,0.00000114,-0.00000034,-0.00000125,-0.00000037,
 -0.00000038,-0.00000026,-0.00000134,0.00000136,-0.00000107,0.00000040,
 0.00000064,-0.00000133,-0.00000040,-0.00000006,-0.00000200,-0.00000088
 ,0.00000067,-0.00000157,-0.00000029,-0.00000027,-0.00000144,0.00000080
 ,-0.00000057,0.00000014,-0.00000024,-0.00000009,0.00000121,0.00000061,
 -0.00000072,-0.00000074,-0.00000055,0.00000027,0.00000094,0.00000099,0
 .00000005,-0.00000005,0.00000082,0.00000016,-0.00000047,0.00000058,-0.
 00000047,-0.00000003,0.00000133,-0.00000075\\\@
 The archive entry for this job was punched.


 WE ARE REACHING THE STAGE WHERE THE PROBLEMS WE MUST SOLVE ARE 
 GOING TO BECOME INSOLUBLE WITHOUT COMPUTERS.
 I DO NOT FEAR COMPUTERS.  I FEAR THE LACK OF THEM.

                                   -- ISSAC ASIMOV
 Job cpu time:       0 days  0 hours 17 minutes 50.9 seconds.
 Elapsed time:       0 days  0 hours  0 minutes 35.3 seconds.
 File lengths (MBytes):  RWF=    110 Int=      0 D2E=      0 Chk=      6 Scr=      1
 Normal termination of Gaussian 16 at Mon Mar 13 09:33:41 2023.
