Job Start Time: Tue Mar 14 10:27:11 MDT 2023
SLURM Job ID: 16747
SLURM Job Name: tetramethylcyclohexane
 Entering Gaussian System, Link 0=/opt/apps/Gaussian/G16C/g16/g16
 Initial command:
 /opt/apps/Gaussian/G16C/g16/l1.exe "/tmp/Gau-338678.inp" -scrdir="/tmp/"
 Entering Link 1 = /opt/apps/Gaussian/G16C/g16/l1.exe PID=    338679.
  
 Copyright (c) 1988-2019, Gaussian, Inc.  All Rights Reserved.
  
 This is part of the Gaussian(R) 16 program.  It is based on
 the Gaussian(R) 09 system (copyright 2009, Gaussian, Inc.),
 the Gaussian(R) 03 system (copyright 2003, Gaussian, Inc.),
 the Gaussian(R) 98 system (copyright 1998, Gaussian, Inc.),
 the Gaussian(R) 94 system (copyright 1995, Gaussian, Inc.),
 the Gaussian 92(TM) system (copyright 1992, Gaussian, Inc.),
 the Gaussian 90(TM) system (copyright 1990, Gaussian, Inc.),
 the Gaussian 88(TM) system (copyright 1988, Gaussian, Inc.),
 the Gaussian 86(TM) system (copyright 1986, Carnegie Mellon
 University), and the Gaussian 82(TM) system (copyright 1983,
 Carnegie Mellon University). Gaussian is a federally registered
 trademark of Gaussian, Inc.
  
 This software contains proprietary and confidential information,
 including trade secrets, belonging to Gaussian, Inc.
  
 This software is provided under written license and may be
 used, copied, transmitted, or stored only in accord with that
 written license.
  
 The following legend is applicable only to US Government
 contracts under FAR:
  
                    RESTRICTED RIGHTS LEGEND
  
 Use, reproduction and disclosure by the US Government is
 subject to restrictions as set forth in subparagraphs (a)
 and (c) of the Commercial Computer Software - Restricted
 Rights clause in FAR 52.227-19.
  
 Gaussian, Inc.
 340 Quinnipiac St., Bldg. 40, Wallingford CT 06492
  
  
 ---------------------------------------------------------------
 Warning -- This program may not be used in any manner that
 competes with the business of Gaussian, Inc. or will provide
 assistance to any competitor of Gaussian, Inc.  The licensee
 of this program is prohibited from giving any competitor of
 Gaussian, Inc. access to this program.  By using this program,
 the user acknowledges that Gaussian, Inc. is engaged in the
 business of creating and licensing software in the field of
 computational chemistry and represents and warrants to the
 licensee that it is not a competitor of Gaussian, Inc. and that
 it will not use this program in any manner prohibited above.
 ---------------------------------------------------------------
  

 Cite this work as:
 Gaussian 16, Revision C.01,
 M. J. Frisch, G. W. Trucks, H. B. Schlegel, G. E. Scuseria, 
 M. A. Robb, J. R. Cheeseman, G. Scalmani, V. Barone, 
 G. A. Petersson, H. Nakatsuji, X. Li, M. Caricato, A. V. Marenich, 
 J. Bloino, B. G. Janesko, R. Gomperts, B. Mennucci, H. P. Hratchian, 
 J. V. Ortiz, A. F. Izmaylov, J. L. Sonnenberg, D. Williams-Young, 
 F. Ding, F. Lipparini, F. Egidi, J. Goings, B. Peng, A. Petrone, 
 T. Henderson, D. Ranasinghe, V. G. Zakrzewski, J. Gao, N. Rega, 
 G. Zheng, W. Liang, M. Hada, M. Ehara, K. Toyota, R. Fukuda, 
 J. Hasegawa, M. Ishida, T. Nakajima, Y. Honda, O. Kitao, H. Nakai, 
 T. Vreven, K. Throssell, J. A. Montgomery, Jr., J. E. Peralta, 
 F. Ogliaro, M. J. Bearpark, J. J. Heyd, E. N. Brothers, K. N. Kudin, 
 V. N. Staroverov, T. A. Keith, R. Kobayashi, J. Normand, 
 K. Raghavachari, A. P. Rendell, J. C. Burant, S. S. Iyengar, 
 J. Tomasi, M. Cossi, J. M. Millam, M. Klene, C. Adamo, R. Cammi, 
 J. W. Ochterski, R. L. Martin, K. Morokuma, O. Farkas, 
 J. B. Foresman, and D. J. Fox, Gaussian, Inc., Wallingford CT, 2019.
 
 ******************************************
 Gaussian 16:  AS64L-G16RevC.01  3-Jul-2019
                14-Mar-2023 
 ******************************************
 %chk=tetramethylcyclohexane.chk
 %nproc=16
 Will use up to   16 processors via shared memory.
 ---------------------------------
 # opt=verytight b3lyp/6-31G* freq
 ---------------------------------
 1/7=1,18=20,19=15,26=3,38=1/1,3;
 2/9=110,12=2,17=6,18=5,40=1/2;
 3/5=1,6=6,7=1,11=2,25=1,30=1,71=1,74=-5/1,2,3;
 4//1;
 5/5=2,38=5/2;
 6/7=2,8=2,9=2,10=2,28=1/1;
 7//1,2,3,16;
 1/7=1,18=20,19=15,26=3/3(2);
 2/9=110/2;
 99//99;
 2/9=110/2;
 3/5=1,6=6,7=1,11=2,25=1,30=1,71=1,74=-5/1,2,3;
 4/5=5,16=3,69=1/1;
 5/5=2,38=5/2;
 7//1,2,3,16;
 1/7=1,18=20,19=15,26=3/3(-5);
 2/9=110/2;
 6/7=2,8=2,9=2,10=2,19=2,28=1/1;
 99/9=1/99;
 -------------------
 Title Card Required
 -------------------
 Symbolic Z-matrix:
 Charge =  0 Multiplicity = 1
 C                    -2.99609  -1.11829   0. 
 C                    -1.48099  -1.11829   0. 
 C                    -0.92905   0.29279   0. 
 C                    -1.47872   1.09733   1.16066 
 C                    -2.99384   1.09799   1.16017 
 C                    -3.54664  -0.31263   1.15888 
 H                    -1.10844  -1.66392   0.90656 
 H                    -1.10569  -1.66814  -0.90191 
 H                    -1.10618   0.66248   2.12527 
 H                    -1.10269   2.15147   1.09867 
 H                    -3.36916   1.64742   2.06229 
 H                    -3.3657    1.64459   0.25385 
 H                    -3.28064  -0.81835   2.12419 
 H                    -4.66519  -0.27757   1.09394 
 C                    -3.51211  -2.56663   0.08724 
 H                    -4.5819   -2.56598   0.06632 
 H                    -3.13946  -3.12868  -0.74351 
 H                    -3.17349  -3.01156   0.99953 
 C                    -3.50773  -0.52381  -1.3253 
 H                    -3.13405  -1.10293  -2.14377 
 H                    -4.57753  -0.54172  -1.33478 
 H                    -3.16708   0.48625  -1.41819 
 C                    -1.29785   0.987    -1.32426 
 H                    -0.51648   1.6631   -1.60221 
 H                    -1.42167   0.25058  -2.09059 
 H                    -2.21164   1.52965  -1.20008 
 C                     0.60782   0.24609   0.08616 
 H                     0.99645  -0.28393  -0.7582 
 H                     0.99528   1.24347   0.0904 
 H                     0.89957  -0.25371   0.98616 
 

 GradGradGradGradGradGradGradGradGradGradGradGradGradGradGradGradGradGrad
 Berny optimization.
 Initialization pass.
                           ----------------------------
                           !    Initial Parameters    !
                           ! (Angstroms and Degrees)  !
 --------------------------                            --------------------------
 ! Name  Definition              Value          Derivative Info.                !
 --------------------------------------------------------------------------------
 ! R1    R(1,2)                  1.5151         estimate D2E/DX2                !
 ! R2    R(1,6)                  1.515          estimate D2E/DX2                !
 ! R3    R(1,15)                 1.54           estimate D2E/DX2                !
 ! R4    R(1,19)                 1.54           estimate D2E/DX2                !
 ! R5    R(2,3)                  1.5152         estimate D2E/DX2                !
 ! R6    R(2,7)                  1.1218         estimate D2E/DX2                !
 ! R7    R(2,8)                  1.121          estimate D2E/DX2                !
 ! R8    R(3,4)                  1.5154         estimate D2E/DX2                !
 ! R9    R(3,23)                 1.54           estimate D2E/DX2                !
 ! R10   R(3,27)                 1.54           estimate D2E/DX2                !
 ! R11   R(4,5)                  1.5151         estimate D2E/DX2                !
 ! R12   R(4,9)                  1.1218         estimate D2E/DX2                !
 ! R13   R(4,10)                 1.1209         estimate D2E/DX2                !
 ! R14   R(5,6)                  1.5151         estimate D2E/DX2                !
 ! R15   R(5,11)                 1.121          estimate D2E/DX2                !
 ! R16   R(5,12)                 1.1218         estimate D2E/DX2                !
 ! R17   R(6,13)                 1.1218         estimate D2E/DX2                !
 ! R18   R(6,14)                 1.121          estimate D2E/DX2                !
 ! R19   R(15,16)                1.07           estimate D2E/DX2                !
 ! R20   R(15,17)                1.07           estimate D2E/DX2                !
 ! R21   R(15,18)                1.07           estimate D2E/DX2                !
 ! R22   R(19,20)                1.07           estimate D2E/DX2                !
 ! R23   R(19,21)                1.07           estimate D2E/DX2                !
 ! R24   R(19,22)                1.07           estimate D2E/DX2                !
 ! R25   R(23,24)                1.07           estimate D2E/DX2                !
 ! R26   R(23,25)                1.07           estimate D2E/DX2                !
 ! R27   R(23,26)                1.07           estimate D2E/DX2                !
 ! R28   R(27,28)                1.07           estimate D2E/DX2                !
 ! R29   R(27,29)                1.07           estimate D2E/DX2                !
 ! R30   R(27,30)                1.07           estimate D2E/DX2                !
 ! A1    A(2,1,6)              111.3094         estimate D2E/DX2                !
 ! A2    A(2,1,15)             109.5772         estimate D2E/DX2                !
 ! A3    A(2,1,19)             109.4042         estimate D2E/DX2                !
 ! A4    A(6,1,15)             109.5749         estimate D2E/DX2                !
 ! A5    A(6,1,19)             109.4074         estimate D2E/DX2                !
 ! A6    A(15,1,19)            107.4863         estimate D2E/DX2                !
 ! A7    A(1,2,3)              111.3625         estimate D2E/DX2                !
 ! A8    A(1,2,7)              109.3968         estimate D2E/DX2                !
 ! A9    A(1,2,8)              109.5595         estimate D2E/DX2                !
 ! A10   A(3,2,7)              109.3908         estimate D2E/DX2                !
 ! A11   A(3,2,8)              109.5638         estimate D2E/DX2                !
 ! A12   A(7,2,8)              107.4839         estimate D2E/DX2                !
 ! A13   A(2,3,4)              111.2413         estimate D2E/DX2                !
 ! A14   A(2,3,23)             109.4252         estimate D2E/DX2                !
 ! A15   A(2,3,27)             109.59           estimate D2E/DX2                !
 ! A16   A(4,3,23)             109.4158         estimate D2E/DX2                !
 ! A17   A(4,3,27)             109.586          estimate D2E/DX2                !
 ! A18   A(23,3,27)            107.5042         estimate D2E/DX2                !
 ! A19   A(3,4,5)              111.2657         estimate D2E/DX2                !
 ! A20   A(3,4,9)              109.4111         estimate D2E/DX2                !
 ! A21   A(3,4,10)             109.5868         estimate D2E/DX2                !
 ! A22   A(5,4,9)              109.4233         estimate D2E/DX2                !
 ! A23   A(5,4,10)             109.5746         estimate D2E/DX2                !
 ! A24   A(9,4,10)             107.5            estimate D2E/DX2                !
 ! A25   A(4,5,6)              111.3744         estimate D2E/DX2                !
 ! A26   A(4,5,11)             109.5589         estimate D2E/DX2                !
 ! A27   A(4,5,12)             109.3871         estimate D2E/DX2                !
 ! A28   A(6,5,11)             109.5649         estimate D2E/DX2                !
 ! A29   A(6,5,12)             109.3914         estimate D2E/DX2                !
 ! A30   A(11,5,12)            107.4801         estimate D2E/DX2                !
 ! A31   A(1,6,5)              111.2962         estimate D2E/DX2                !
 ! A32   A(1,6,13)             109.4108         estimate D2E/DX2                !
 ! A33   A(1,6,14)             109.5686         estimate D2E/DX2                !
 ! A34   A(5,6,13)             109.42           estimate D2E/DX2                !
 ! A35   A(5,6,14)             109.5728         estimate D2E/DX2                !
 ! A36   A(13,6,14)            107.4917         estimate D2E/DX2                !
 ! A37   A(1,15,16)            109.4712         estimate D2E/DX2                !
 ! A38   A(1,15,17)            109.4712         estimate D2E/DX2                !
 ! A39   A(1,15,18)            109.4712         estimate D2E/DX2                !
 ! A40   A(16,15,17)           109.4713         estimate D2E/DX2                !
 ! A41   A(16,15,18)           109.4712         estimate D2E/DX2                !
 ! A42   A(17,15,18)           109.4712         estimate D2E/DX2                !
 ! A43   A(1,19,20)            109.4712         estimate D2E/DX2                !
 ! A44   A(1,19,21)            109.4712         estimate D2E/DX2                !
 ! A45   A(1,19,22)            109.4712         estimate D2E/DX2                !
 ! A46   A(20,19,21)           109.4712         estimate D2E/DX2                !
 ! A47   A(20,19,22)           109.4712         estimate D2E/DX2                !
 ! A48   A(21,19,22)           109.4712         estimate D2E/DX2                !
 ! A49   A(3,23,24)            109.4712         estimate D2E/DX2                !
 ! A50   A(3,23,25)            109.4712         estimate D2E/DX2                !
 ! A51   A(3,23,26)            109.4712         estimate D2E/DX2                !
 ! A52   A(24,23,25)           109.4713         estimate D2E/DX2                !
 ! A53   A(24,23,26)           109.4712         estimate D2E/DX2                !
 ! A54   A(25,23,26)           109.4712         estimate D2E/DX2                !
 ! A55   A(3,27,28)            109.4712         estimate D2E/DX2                !
 ! A56   A(3,27,29)            109.4712         estimate D2E/DX2                !
 ! A57   A(3,27,30)            109.4712         estimate D2E/DX2                !
 ! A58   A(28,27,29)           109.4713         estimate D2E/DX2                !
 ! A59   A(28,27,30)           109.4712         estimate D2E/DX2                !
 ! A60   A(29,27,30)           109.4712         estimate D2E/DX2                !
 ! D1    D(6,1,2,3)            -55.1928         estimate D2E/DX2                !
 ! D2    D(6,1,2,7)             65.8497         estimate D2E/DX2                !
 ! D3    D(6,1,2,8)           -176.5618         estimate D2E/DX2                !
 ! D4    D(15,1,2,3)          -176.5529         estimate D2E/DX2                !
 ! D5    D(15,1,2,7)           -55.5104         estimate D2E/DX2                !
 ! D6    D(15,1,2,8)            62.0781         estimate D2E/DX2                !
 ! D7    D(19,1,2,3)            65.8411         estimate D2E/DX2                !
 ! D8    D(19,1,2,7)          -173.1163         estimate D2E/DX2                !
 ! D9    D(19,1,2,8)           -55.5279         estimate D2E/DX2                !
 ! D10   D(2,1,6,5)             55.0823         estimate D2E/DX2                !
 ! D11   D(2,1,6,13)           -65.9633         estimate D2E/DX2                !
 ! D12   D(2,1,6,14)           176.4253         estimate D2E/DX2                !
 ! D13   D(15,1,6,5)           176.4437         estimate D2E/DX2                !
 ! D14   D(15,1,6,13)           55.3981         estimate D2E/DX2                !
 ! D15   D(15,1,6,14)          -62.2133         estimate D2E/DX2                !
 ! D16   D(19,1,6,5)           -65.9498         estimate D2E/DX2                !
 ! D17   D(19,1,6,13)          173.0046         estimate D2E/DX2                !
 ! D18   D(19,1,6,14)           55.3933         estimate D2E/DX2                !
 ! D19   D(2,1,15,16)         -178.8158         estimate D2E/DX2                !
 ! D20   D(2,1,15,17)          -58.8158         estimate D2E/DX2                !
 ! D21   D(2,1,15,18)           61.1842         estimate D2E/DX2                !
 ! D22   D(6,1,15,16)           58.7846         estimate D2E/DX2                !
 ! D23   D(6,1,15,17)          178.7847         estimate D2E/DX2                !
 ! D24   D(6,1,15,18)          -61.2153         estimate D2E/DX2                !
 ! D25   D(19,1,15,16)         -60.0169         estimate D2E/DX2                !
 ! D26   D(19,1,15,17)          59.9832         estimate D2E/DX2                !
 ! D27   D(19,1,15,18)         179.9832         estimate D2E/DX2                !
 ! D28   D(2,1,19,20)           58.8518         estimate D2E/DX2                !
 ! D29   D(2,1,19,21)          178.8518         estimate D2E/DX2                !
 ! D30   D(2,1,19,22)          -61.1482         estimate D2E/DX2                !
 ! D31   D(6,1,19,20)         -178.9673         estimate D2E/DX2                !
 ! D32   D(6,1,19,21)          -58.9673         estimate D2E/DX2                !
 ! D33   D(6,1,19,22)           61.0327         estimate D2E/DX2                !
 ! D34   D(15,1,19,20)         -60.0582         estimate D2E/DX2                !
 ! D35   D(15,1,19,21)          59.9418         estimate D2E/DX2                !
 ! D36   D(15,1,19,22)         179.9418         estimate D2E/DX2                !
 ! D37   D(1,2,3,4)             55.2571         estimate D2E/DX2                !
 ! D38   D(1,2,3,23)           -65.7573         estimate D2E/DX2                !
 ! D39   D(1,2,3,27)           176.5953         estimate D2E/DX2                !
 ! D40   D(7,2,3,4)            -65.7889         estimate D2E/DX2                !
 ! D41   D(7,2,3,23)           173.1966         estimate D2E/DX2                !
 ! D42   D(7,2,3,27)            55.5492         estimate D2E/DX2                !
 ! D43   D(8,2,3,4)            176.6237         estimate D2E/DX2                !
 ! D44   D(8,2,3,23)            55.6092         estimate D2E/DX2                !
 ! D45   D(8,2,3,27)           -62.0382         estimate D2E/DX2                !
 ! D46   D(2,3,4,5)            -55.2366         estimate D2E/DX2                !
 ! D47   D(2,3,4,9)             65.7936         estimate D2E/DX2                !
 ! D48   D(2,3,4,10)          -176.5742         estimate D2E/DX2                !
 ! D49   D(23,3,4,5)            65.7833         estimate D2E/DX2                !
 ! D50   D(23,3,4,9)          -173.1864         estimate D2E/DX2                !
 ! D51   D(23,3,4,10)          -55.5543         estimate D2E/DX2                !
 ! D52   D(27,3,4,5)          -176.5771         estimate D2E/DX2                !
 ! D53   D(27,3,4,9)           -55.5468         estimate D2E/DX2                !
 ! D54   D(27,3,4,10)           62.0853         estimate D2E/DX2                !
 ! D55   D(2,3,23,24)         -146.7532         estimate D2E/DX2                !
 ! D56   D(2,3,23,25)          -26.7532         estimate D2E/DX2                !
 ! D57   D(2,3,23,26)           93.2468         estimate D2E/DX2                !
 ! D58   D(4,3,23,24)           91.1315         estimate D2E/DX2                !
 ! D59   D(4,3,23,25)         -148.8685         estimate D2E/DX2                !
 ! D60   D(4,3,23,26)          -28.8685         estimate D2E/DX2                !
 ! D61   D(27,3,23,24)         -27.8058         estimate D2E/DX2                !
 ! D62   D(27,3,23,25)          92.1942         estimate D2E/DX2                !
 ! D63   D(27,3,23,26)        -147.8058         estimate D2E/DX2                !
 ! D64   D(2,3,27,28)           60.2486         estimate D2E/DX2                !
 ! D65   D(2,3,27,29)         -179.7514         estimate D2E/DX2                !
 ! D66   D(2,3,27,30)          -59.7514         estimate D2E/DX2                !
 ! D67   D(4,3,27,28)         -177.421          estimate D2E/DX2                !
 ! D68   D(4,3,27,29)          -57.421          estimate D2E/DX2                !
 ! D69   D(4,3,27,30)           62.579          estimate D2E/DX2                !
 ! D70   D(23,3,27,28)         -58.593          estimate D2E/DX2                !
 ! D71   D(23,3,27,29)          61.407          estimate D2E/DX2                !
 ! D72   D(23,3,27,30)        -178.593          estimate D2E/DX2                !
 ! D73   D(3,4,5,6)             55.2381         estimate D2E/DX2                !
 ! D74   D(3,4,5,11)           176.6158         estimate D2E/DX2                !
 ! D75   D(3,4,5,12)           -65.8064         estimate D2E/DX2                !
 ! D76   D(9,4,5,6)            -65.785          estimate D2E/DX2                !
 ! D77   D(9,4,5,11)            55.5927         estimate D2E/DX2                !
 ! D78   D(9,4,5,12)           173.1705         estimate D2E/DX2                !
 ! D79   D(10,4,5,6)           176.5828         estimate D2E/DX2                !
 ! D80   D(10,4,5,11)          -62.0395         estimate D2E/DX2                !
 ! D81   D(10,4,5,12)           55.5383         estimate D2E/DX2                !
 ! D82   D(4,5,6,1)            -55.1527         estimate D2E/DX2                !
 ! D83   D(4,5,6,13)            65.8876         estimate D2E/DX2                !
 ! D84   D(4,5,6,14)          -176.4932         estimate D2E/DX2                !
 ! D85   D(11,5,6,1)          -176.5268         estimate D2E/DX2                !
 ! D86   D(11,5,6,13)          -55.4866         estimate D2E/DX2                !
 ! D87   D(11,5,6,14)           62.1326         estimate D2E/DX2                !
 ! D88   D(12,5,6,1)            65.8893         estimate D2E/DX2                !
 ! D89   D(12,5,6,13)         -173.0704         estimate D2E/DX2                !
 ! D90   D(12,5,6,14)          -55.4512         estimate D2E/DX2                !
 --------------------------------------------------------------------------------
 Trust Radius=3.00D-01 FncErr=1.00D-07 GrdErr=1.00D-06 EigMax=2.50D+02 EigMin=1.00D-04
 Number of steps in this run=    180 maximum allowed number of steps=    180.
 GradGradGradGradGradGradGradGradGradGradGradGradGradGradGradGradGradGrad

                          Input orientation:                          
 ---------------------------------------------------------------------
 Center     Atomic      Atomic             Coordinates (Angstroms)
 Number     Number       Type             X           Y           Z
 ---------------------------------------------------------------------
      1          6           0       -2.996091   -1.118285    0.000000
      2          6           0       -1.480985   -1.118285    0.000000
      3          6           0       -0.929054    0.292793    0.000000
      4          6           0       -1.478717    1.097330    1.160661
      5          6           0       -2.993842    1.097991    1.160172
      6          6           0       -3.546642   -0.312630    1.158876
      7          1           0       -1.108436   -1.663919    0.906562
      8          1           0       -1.105691   -1.668144   -0.901910
      9          1           0       -1.106182    0.662485    2.125272
     10          1           0       -1.102694    2.151467    1.098666
     11          1           0       -3.369162    1.647419    2.062286
     12          1           0       -3.365697    1.644592    0.253849
     13          1           0       -3.280638   -0.818352    2.124191
     14          1           0       -4.665190   -0.277569    1.093938
     15          6           0       -3.512108   -2.566634    0.087243
     16          1           0       -4.581903   -2.565985    0.066317
     17          1           0       -3.139464   -3.128677   -0.743507
     18          1           0       -3.173488   -3.011561    0.999535
     19          6           0       -3.507726   -0.523812   -1.325304
     20          1           0       -3.134053   -1.102930   -2.143773
     21          1           0       -4.577535   -0.541717   -1.334780
     22          1           0       -3.167078    0.486253   -1.418188
     23          6           0       -1.297850    0.986996   -1.324263
     24          1           0       -0.516485    1.663096   -1.602214
     25          1           0       -1.421668    0.250582   -2.090594
     26          1           0       -2.211639    1.529646   -1.200085
     27          6           0        0.607824    0.246091    0.086165
     28          1           0        0.996448   -0.283932   -0.758197
     29          1           0        0.995285    1.243466    0.090402
     30          1           0        0.899570   -0.253708    0.986156
 ---------------------------------------------------------------------
                    Distance matrix (angstroms):
                    1          2          3          4          5
     1  C    0.000000
     2  C    1.515106   0.000000
     3  C    2.502755   1.515180   0.000000
     4  C    2.925493   2.501217   1.515435   0.000000
     5  C    2.501576   2.923459   2.501538   1.515125   0.000000
     6  C    1.514985   2.501802   2.925970   2.502859   1.515071
     7  H    2.163981   1.121768   2.163967   2.797529   3.353688
     8  H    2.165502   1.120996   2.165621   3.470042   3.933039
     9  H    3.355545   2.797928   2.164446   1.121761   2.164334
    10  H    3.934882   3.470079   2.166076   1.120911   2.165649
    11  H    3.470061   3.932856   3.470182   2.165481   1.120958
    12  H    2.799024   3.354112   2.798040   2.163908   1.121816
    13  H    2.164050   2.800160   3.358091   2.800919   2.164245
    14  H    2.165501   3.470254   3.934555   3.471082   2.165631
    15  C    1.540000   2.496155   3.854362   4.325684   3.853473
    16  H    2.148263   3.422853   4.638999   4.924147   4.140432
    17  H    2.148263   2.710171   4.140672   4.923725   4.637879
    18  H    2.148263   2.729127   4.117683   4.447606   4.116612
    19  C    1.540000   2.493493   3.012113   3.595136   3.011962
    20  H    2.148263   2.707145   3.377252   4.301229   3.972375
    21  H    2.148263   3.420919   3.973595   4.303065   3.379572
    22  H    2.148263   2.725565   2.656583   3.142362   2.655593
    23  C    3.011628   2.493876   1.540000   2.493939   3.010170
    24  H    4.056059   3.351631   2.148263   2.979842   3.753321
    25  H    2.953504   2.499580   2.148263   3.360193   3.709085
    26  H    3.011164   2.997599   2.148263   2.509421   2.523684
    27  C    3.854498   2.496412   1.540000   2.496558   3.853729
    28  H    4.148659   2.721889   2.148263   3.422914   4.638132
    29  H    4.638655   3.423150   2.148263   2.699536   4.132639
    30  H    4.110496   2.717911   2.148263   2.740804   4.125049
                    6          7          8          9         10
     6  C    0.000000
     7  H    2.799016   0.000000
     8  H    3.470230   1.808479   0.000000
     9  H    2.800110   2.626293   3.820427   0.000000
    10  H    3.471063   3.820223   4.311814   1.808590   0.000000
    11  H    2.165512   4.172714   4.990262   2.468834   2.513863
    12  H    2.163916   4.058018   4.173443   3.093892   2.468161
    13  H    1.121760   2.629841   3.822280   2.630806   3.822953
    14  H    1.120980   3.821986   4.311281   3.822812   4.311800
    15  C    2.496022   2.695147   2.752554   4.513231   5.393397
    16  H    2.709808   3.685744   3.718553   5.171359   5.951890
    17  H    3.422714   2.998886   2.508880   5.170786   5.951634
    18  H    2.729260   2.467635   3.113848   4.363445   5.563711
    19  C    2.493444   3.469534   2.694166   4.368202   4.337849
    20  H    3.420862   3.704373   2.444575   5.045166   5.023040
    21  H    2.708051   4.279906   3.675583   5.047014   5.024879
    22  H    2.724617   3.776997   3.026100   4.102981   3.656388
    23  C    3.593337   3.469843   2.695381   3.470062   2.695304
    24  H    4.550710   4.208728   3.454671   3.904243   2.806581
    25  H    3.923236   3.570206   2.279105   4.247672   3.726458
    26  H    3.277332   3.981693   3.396747   3.609986   2.626914
    27  C    4.326947   2.695689   2.752585   2.696138   2.753450
    28  H    4.931091   3.017668   2.521048   3.692039   3.712884
    29  H    4.918554   3.680305   3.725085   2.982347   2.498515
    30  H    4.449956   2.455019   3.096207   2.481942   3.131547
                   11         12         13         14         15
    11  H    0.000000
    12  H    1.808443   0.000000
    13  H    2.468136   3.093785   0.000000
    14  H    2.514551   2.467617   1.808550   0.000000
    15  C    4.656122   4.217063   2.694295   2.753698   0.000000
    16  H    4.817406   4.386716   2.997058   2.509938   1.070000
    17  H    5.544035   4.881597   3.685271   3.719255   1.070000
    18  H    4.782659   4.719402   2.467083   3.115895   1.070000
    19  C    4.026067   2.686238   3.469487   2.693156   2.483632
    20  H    5.030967   3.653919   4.279952   3.675374   2.694956
    21  H    4.218120   2.961796   3.704450   2.444612   2.693988
    22  H    3.674621   2.043748   3.776683   3.023002   3.421328
    23  C    4.024326   2.683069   4.368359   4.334259   4.418549
    24  H    4.643982   3.400489   5.261580   5.314807   5.451481
    25  H    4.794820   3.349467   4.728932   4.576093   4.129119
    26  H    3.463638   1.859835   4.207928   3.814247   4.486417
    27  C    4.656736   4.215779   4.517381   5.393932   4.988514
    28  H    5.544708   4.875628   5.185290   5.956894   5.123727
    29  H    4.806235   4.382440   5.164388   5.946563   5.901988
    30  H    4.795249   4.725708   4.368992   5.565855   5.061678
                   16         17         18         19         20
    16  H    0.000000
    17  H    1.747303   0.000000
    18  H    1.747303   1.747303   0.000000
    19  C    2.694612   2.694332   3.421328   0.000000
    20  H    3.020148   2.462605   3.677609   1.070000   0.000000
    21  H    2.461860   3.018280   3.677024   1.070000   1.747303
    22  H    3.677178   3.677454   4.252073   1.070000   1.747303
    23  C    5.034122   4.546161   4.990643   2.676956   2.900178
    24  H    6.098914   5.529782   5.973373   3.715747   3.846538
    25  H    4.751042   4.023041   4.822795   2.353082   2.183366
    26  H    4.898583   4.771718   5.136734   2.431504   2.944801
    27  C    5.902664   5.110732   5.073940   4.418456   4.560058
    28  H    6.083222   5.019816   5.283744   4.546069   4.433015
    29  H    6.754075   6.075128   6.025815   5.040298   5.248671
    30  H    6.019907   5.250807   4.918917   4.983981   5.175689
                   21         22         23         24         25
    21  H    0.000000
    22  H    1.747303   0.000000
    23  C    3.618481   1.937415   0.000000
    24  H    4.628698   2.905937   1.070000   0.000000
    25  H    3.340432   1.885239   1.070000   1.747303   0.000000
    26  H    3.147403   1.431468   1.070000   1.747303   1.747303
    27  C    5.433937   4.070705   2.483916   2.474387   2.976094
    28  H    5.609651   4.285291   2.683187   2.606194   2.812165
    29  H    6.022818   4.491601   2.706570   2.307918   3.403560
    30  H    5.955533   4.781844   3.421409   3.518381   3.887010
                   26         27         28         29         30
    26  H    0.000000
    27  C    3.354299   0.000000
    28  H    3.711624   1.070000   0.000000
    29  H    3.468662   1.070000   1.747303   0.000000
    30  H    4.199955   1.070000   1.747303   1.747303   0.000000
 Stoichiometry    C10H20
 Framework group  C1[X(C10H20)]
 Deg. of freedom    84
 Full point group                 C1      NOp   1
 Largest Abelian subgroup         C1      NOp   1
 Largest concise Abelian subgroup C1      NOp   1
                         Standard orientation:                         
 ---------------------------------------------------------------------
 Center     Atomic      Atomic             Coordinates (Angstroms)
 Number     Number       Type             X           Y           Z
 ---------------------------------------------------------------------
      1          6           0        1.251244   -0.248352   -0.115032
      2          6           0       -0.000069   -0.905196   -0.661216
      3          6           0       -1.251511   -0.248495   -0.114951
      4          6           0       -1.251242    1.242816   -0.384270
      5          6           0       -0.000286    1.899775    0.162647
      6          6           0        1.251616    1.242913   -0.382068
      7          1           0       -0.000166   -0.833476   -1.780690
      8          1           0        0.000061   -1.993748   -0.393475
      9          1           0       -1.313797    1.422007   -1.489857
     10          1           0       -2.156146    1.709493    0.084563
     11          1           0       -0.000152    2.988196   -0.105469
     12          1           0       -0.001308    1.828521    1.282197
     13          1           0        1.317007    1.423735   -1.487225
     14          1           0        2.155651    1.708576    0.089605
     15          6           0        2.494034   -0.888502   -0.761004
     16          1           0        3.377204   -0.437682   -0.358919
     17          1           0        2.503217   -1.938139   -0.553454
     18          1           0        2.465177   -0.734464   -1.819465
     19          6           0        1.338699   -0.496521    1.402322
     20          1           0        1.356660   -1.549594    1.591042
     21          1           0        2.232340   -0.050155    1.785810
     22          1           0        0.487862   -0.062244    1.884380
     23          6           0       -1.338256   -0.494599    1.402781
     24          1           0       -2.364767   -0.581779    1.691874
     25          1           0       -0.820738   -1.398533    1.647684
     26          1           0       -0.889535    0.325521    1.923311
     27          6           0       -2.494480   -0.889335   -0.759896
     28          1           0       -2.516546   -1.934273   -0.530730
     29          1           0       -3.376829   -0.421307   -0.376087
     30          1           0       -2.453684   -0.757683   -1.820982
 ---------------------------------------------------------------------
 Rotational constants (GHZ):           1.9164614           1.1264174           1.0109155
 Standard basis: 6-31G(d) (6D, 7F)
 There are   190 symmetry adapted cartesian basis functions of A   symmetry.
 There are   190 symmetry adapted basis functions of A   symmetry.
   190 basis functions,   360 primitive gaussians,   190 cartesian basis functions
    40 alpha electrons       40 beta electrons
       nuclear repulsion energy       621.1963964580 Hartrees.
 NAtoms=   30 NActive=   30 NUniq=   30 SFac= 1.00D+00 NAtFMM=   60 NAOKFM=F Big=F
 Integral buffers will be    131072 words long.
 Raffenetti 2 integral format.
 Two-electron integral symmetry is turned on.
 One-electron integrals computed using PRISM.
 NBasis=   190 RedAO= T EigKep=  2.63D-03  NBF=   190
 NBsUse=   190 1.00D-06 EigRej= -1.00D+00 NBFU=   190
 ExpMin= 1.61D-01 ExpMax= 3.05D+03 ExpMxC= 4.57D+02 IAcc=3 IRadAn=         5 AccDes= 0.00D+00
 Harris functional with IExCor=  402 and IRadAn=       5 diagonalized for initial guess.
 HarFok:  IExCor=  402 AccDes= 0.00D+00 IRadAn=         5 IDoV= 1 UseB2=F ITyADJ=14
 ICtDFT=  3500011 ScaDFX=  1.000000  1.000000  1.000000  1.000000
 FoFCou: FMM=F IPFlag=           0 FMFlag=      100000 FMFlg1=           0
         NFxFlg=           0 DoJE=T BraDBF=F KetDBF=T FulRan=T
         wScrn=  0.000000 ICntrl=       500 IOpCl=  0 I1Cent=   200000004 NGrid=           0
         NMat0=    1 NMatS0=      1 NMatT0=    0 NMatD0=    1 NMtDS0=    0 NMtDT0=    0
 Petite list used in FoFCou.
 Requested convergence on RMS density matrix=1.00D-08 within 128 cycles.
 Requested convergence on MAX density matrix=1.00D-06.
 Requested convergence on             energy=1.00D-06.
 No special actions if energy rises.
 Integral accuracy reduced to 1.0D-05 until final iterations.
 Initial convergence to 1.0D-05 achieved.  Increase integral accuracy.
 SCF Done:  E(RB3LYP) =  -393.087097469     A.U. after   12 cycles
            NFock= 12  Conv=0.50D-08     -V/T= 2.0082

 **********************************************************************

            Population analysis using the SCF Density.

 **********************************************************************

 Orbital symmetries:
       Occupied  (A) (A) (A) (A) (A) (A) (A) (A) (A) (A) (A) (A)
                 (A) (A) (A) (A) (A) (A) (A) (A) (A) (A) (A) (A)
                 (A) (A) (A) (A) (A) (A) (A) (A) (A) (A) (A) (A)
                 (A) (A) (A) (A)
       Virtual   (A) (A) (A) (A) (A) (A) (A) (A) (A) (A) (A) (A)
                 (A) (A) (A) (A) (A) (A) (A) (A) (A) (A) (A) (A)
                 (A) (A) (A) (A) (A) (A) (A) (A) (A) (A) (A) (A)
                 (A) (A) (A) (A) (A) (A) (A) (A) (A) (A) (A) (A)
                 (A) (A) (A) (A) (A) (A) (A) (A) (A) (A) (A) (A)
                 (A) (A) (A) (A) (A) (A) (A) (A) (A) (A) (A) (A)
                 (A) (A) (A) (A) (A) (A) (A) (A) (A) (A) (A) (A)
                 (A) (A) (A) (A) (A) (A) (A) (A) (A) (A) (A) (A)
                 (A) (A) (A) (A) (A) (A) (A) (A) (A) (A) (A) (A)
                 (A) (A) (A) (A) (A) (A) (A) (A) (A) (A) (A) (A)
                 (A) (A) (A) (A) (A) (A) (A) (A) (A) (A) (A) (A)
                 (A) (A) (A) (A) (A) (A) (A) (A) (A) (A) (A) (A)
                 (A) (A) (A) (A) (A) (A)
 The electronic state is 1-A.
 Alpha  occ. eigenvalues --  -10.18159 -10.17907 -10.17657 -10.17486 -10.17336
 Alpha  occ. eigenvalues --  -10.17058 -10.15803 -10.15601 -10.15563 -10.14684
 Alpha  occ. eigenvalues --   -0.85693  -0.79197  -0.75746  -0.70583  -0.67707
 Alpha  occ. eigenvalues --   -0.67173  -0.66303  -0.59193  -0.54175  -0.51310
 Alpha  occ. eigenvalues --   -0.48489  -0.46011  -0.44501  -0.44103  -0.42784
 Alpha  occ. eigenvalues --   -0.41367  -0.40459  -0.39090  -0.38712  -0.36918
 Alpha  occ. eigenvalues --   -0.36523  -0.36158  -0.35850  -0.33116  -0.32826
 Alpha  occ. eigenvalues --   -0.32068  -0.30727  -0.29799  -0.28590  -0.27503
 Alpha virt. eigenvalues --    0.07272   0.10277   0.11100   0.12207   0.12619
 Alpha virt. eigenvalues --    0.13505   0.14875   0.15951   0.16544   0.16986
 Alpha virt. eigenvalues --    0.17534   0.18490   0.19552   0.19799   0.20430
 Alpha virt. eigenvalues --    0.21231   0.21571   0.22302   0.22998   0.23263
 Alpha virt. eigenvalues --    0.24420   0.25154   0.25610   0.26445   0.28938
 Alpha virt. eigenvalues --    0.29313   0.30338   0.30861   0.31166   0.35540
 Alpha virt. eigenvalues --    0.50577   0.50703   0.52949   0.53201   0.53696
 Alpha virt. eigenvalues --    0.53978   0.54680   0.58141   0.61925   0.62484
 Alpha virt. eigenvalues --    0.64425   0.64901   0.66725   0.67965   0.71645
 Alpha virt. eigenvalues --    0.73681   0.74448   0.74900   0.76300   0.76503
 Alpha virt. eigenvalues --    0.78509   0.80091   0.81883   0.84425   0.86029
 Alpha virt. eigenvalues --    0.86467   0.87022   0.88171   0.89872   0.90307
 Alpha virt. eigenvalues --    0.91718   0.92381   0.93198   0.93703   0.94153
 Alpha virt. eigenvalues --    0.94723   0.95332   0.96059   0.96962   0.97810
 Alpha virt. eigenvalues --    0.99180   0.99397   0.99983   1.01832   1.02429
 Alpha virt. eigenvalues --    1.05957   1.08748   1.09669   1.14908   1.21642
 Alpha virt. eigenvalues --    1.25928   1.34134   1.37248   1.39159   1.40546
 Alpha virt. eigenvalues --    1.47996   1.49812   1.52885   1.55712   1.65213
 Alpha virt. eigenvalues --    1.67452   1.68178   1.71393   1.72161   1.77287
 Alpha virt. eigenvalues --    1.80372   1.83290   1.85734   1.88865   1.89348
 Alpha virt. eigenvalues --    1.90110   1.91396   1.91817   1.95899   1.96901
 Alpha virt. eigenvalues --    2.00895   2.02235   2.04947   2.08534   2.09869
 Alpha virt. eigenvalues --    2.13021   2.14631   2.18711   2.19821   2.22163
 Alpha virt. eigenvalues --    2.24057   2.24430   2.26103   2.27227   2.28700
 Alpha virt. eigenvalues --    2.29939   2.30673   2.33869   2.34376   2.38288
 Alpha virt. eigenvalues --    2.41841   2.41974   2.43026   2.51473   2.52223
 Alpha virt. eigenvalues --    2.57051   2.61227   2.69626   2.74376   2.75481
 Alpha virt. eigenvalues --    2.77782   2.78185   2.84699   2.86114   2.88243
 Alpha virt. eigenvalues --    4.16823   4.25972   4.28049   4.32352   4.35445
 Alpha virt. eigenvalues --    4.39163   4.48971   4.59634   4.76405   4.83096
          Condensed to atoms (all electrons):
               1          2          3          4          5          6
     1  C    4.759718   0.390080  -0.020423  -0.017529  -0.039590   0.399206
     2  C    0.390080   5.137939   0.398097  -0.053223  -0.017148  -0.053374
     3  C   -0.020423   0.398097   4.745949   0.403062  -0.035956  -0.016763
     4  C   -0.017529  -0.053223   0.403062   5.085843   0.365615  -0.044407
     5  C   -0.039590  -0.017148  -0.035956   0.365615   5.050734   0.365467
     6  C    0.399206  -0.053374  -0.016763  -0.044407   0.365467   5.082468
     7  H   -0.037585   0.355041  -0.038741  -0.006424   0.000221  -0.006526
     8  H   -0.032471   0.353767  -0.032167   0.006057  -0.000137   0.006137
     9  H   -0.000789  -0.005572  -0.037619   0.360170  -0.038883  -0.004465
    10  H    0.000223   0.006014  -0.035871   0.361904  -0.034901   0.005152
    11  H    0.005221   0.000066   0.004832  -0.032852   0.362639  -0.033154
    12  H   -0.009054  -0.000202  -0.006553  -0.043906   0.372761  -0.041499
    13  H   -0.038516  -0.005337  -0.000864  -0.004707  -0.039331   0.360841
    14  H   -0.033406   0.006049   0.000193   0.005165  -0.034817   0.361224
    15  C    0.383713  -0.056902   0.004987   0.000452   0.005747  -0.056701
    16  H   -0.028186   0.006012  -0.000194  -0.000000   0.000004  -0.005184
    17  H   -0.028508  -0.005462   0.000064  -0.000000  -0.000235   0.006130
    18  H   -0.029385  -0.006099   0.000056  -0.000043   0.000020  -0.006008
    19  C    0.394495  -0.062114  -0.009573  -0.002861  -0.001703  -0.070036
    20  H   -0.029753  -0.005508   0.000104   0.000030   0.000105   0.006419
    21  H   -0.030610   0.006421   0.000284   0.000095  -0.001012  -0.004874
    22  H   -0.033903  -0.005949  -0.004052  -0.000182   0.001073  -0.005777
    23  C   -0.010432  -0.059485   0.366634  -0.065555  -0.010856  -0.002943
    24  H    0.000255   0.005275  -0.029007  -0.000469  -0.000083  -0.000053
    25  H   -0.004484  -0.005815  -0.032415   0.006380   0.000170   0.000511
    26  H    0.002463   0.001768  -0.040359  -0.009696   0.003918   0.000320
    27  C    0.004801  -0.057416   0.388733  -0.056896   0.005543   0.000507
    28  H    0.000077  -0.005015  -0.029947   0.006196  -0.000235   0.000001
    29  H   -0.000184   0.005863  -0.026447  -0.004896   0.000022  -0.000001
    30  H    0.000062  -0.005943  -0.030435  -0.006124   0.000044  -0.000046
               7          8          9         10         11         12
     1  C   -0.037585  -0.032471  -0.000789   0.000223   0.005221  -0.009054
     2  C    0.355041   0.353767  -0.005572   0.006014   0.000066  -0.000202
     3  C   -0.038741  -0.032167  -0.037619  -0.035871   0.004832  -0.006553
     4  C   -0.006424   0.006057   0.360170   0.361904  -0.032852  -0.043906
     5  C    0.000221  -0.000137  -0.038883  -0.034901   0.362639   0.372761
     6  C   -0.006526   0.006137  -0.004465   0.005152  -0.033154  -0.041499
     7  H    0.635419  -0.034132   0.004831  -0.000106  -0.000032   0.000084
     8  H   -0.034132   0.628423  -0.000078  -0.000185   0.000017  -0.000029
     9  H    0.004831  -0.000078   0.624851  -0.034040  -0.004228   0.005853
    10  H   -0.000106  -0.000185  -0.034040   0.622741  -0.002906  -0.004537
    11  H   -0.000032   0.000017  -0.004228  -0.002906   0.613993  -0.030837
    12  H    0.000084  -0.000029   0.005853  -0.004537  -0.030837   0.617702
    13  H    0.004880  -0.000089   0.004954  -0.000045  -0.004534   0.005774
    14  H   -0.000097  -0.000182  -0.000044  -0.000185  -0.002908  -0.004394
    15  C   -0.007093  -0.005961  -0.000089   0.000011  -0.000155  -0.000019
    16  H    0.000035  -0.000063   0.000000  -0.000000  -0.000002  -0.000007
    17  H   -0.000304   0.005183   0.000001  -0.000000   0.000003   0.000004
    18  H    0.005780  -0.000297   0.000008  -0.000000  -0.000002   0.000004
    19  C    0.007343  -0.009209   0.000137  -0.000012   0.000081   0.004340
    20  H   -0.000073   0.004830   0.000005  -0.000002   0.000001  -0.000014
    21  H   -0.000192   0.000004  -0.000001  -0.000004  -0.000034   0.000374
    22  H   -0.000265  -0.000113  -0.000062   0.000013  -0.000067  -0.001783
    23  C    0.007892  -0.011912   0.007080  -0.007009   0.000422  -0.003717
    24  H   -0.000196   0.000161  -0.000179   0.002184  -0.000005   0.000177
    25  H    0.000067   0.006815  -0.000232   0.000004   0.000002  -0.000378
    26  H   -0.000315   0.000083   0.000207   0.000674  -0.000419   0.008811
    27  C   -0.007050  -0.005423  -0.006517  -0.006157  -0.000165  -0.000053
    28  H   -0.000346   0.005203  -0.000009  -0.000047   0.000003   0.000004
    29  H    0.000031  -0.000056  -0.000293   0.005478  -0.000002  -0.000008
    30  H    0.005803  -0.000313   0.005492  -0.000315  -0.000001   0.000007
              13         14         15         16         17         18
     1  C   -0.038516  -0.033406   0.383713  -0.028186  -0.028508  -0.029385
     2  C   -0.005337   0.006049  -0.056902   0.006012  -0.005462  -0.006099
     3  C   -0.000864   0.000193   0.004987  -0.000194   0.000064   0.000056
     4  C   -0.004707   0.005165   0.000452  -0.000000  -0.000000  -0.000043
     5  C   -0.039331  -0.034817   0.005747   0.000004  -0.000235   0.000020
     6  C    0.360841   0.361224  -0.056701  -0.005184   0.006130  -0.006008
     7  H    0.004880  -0.000097  -0.007093   0.000035  -0.000304   0.005780
     8  H   -0.000089  -0.000182  -0.005961  -0.000063   0.005183  -0.000297
     9  H    0.004954  -0.000044  -0.000089   0.000000   0.000001   0.000008
    10  H   -0.000045  -0.000185   0.000011  -0.000000  -0.000000  -0.000000
    11  H   -0.004534  -0.002908  -0.000155  -0.000002   0.000003  -0.000002
    12  H    0.005774  -0.004394  -0.000019  -0.000007   0.000004   0.000004
    13  H    0.627838  -0.033714  -0.007069  -0.000239   0.000005   0.005817
    14  H   -0.033714   0.620751  -0.006120   0.005053  -0.000051  -0.000280
    15  C   -0.007069  -0.006120   5.158340   0.365547   0.366568   0.365257
    16  H   -0.000239   0.005053   0.365547   0.580355  -0.030325  -0.030022
    17  H    0.000005  -0.000051   0.366568  -0.030325   0.581681  -0.030237
    18  H    0.005817  -0.000280   0.365257  -0.030022  -0.030237   0.582775
    19  C    0.007191  -0.009048  -0.064320  -0.005666  -0.006005   0.006937
    20  H   -0.000205  -0.000001  -0.005958  -0.000228   0.005049  -0.000027
    21  H   -0.000060   0.005743  -0.008215   0.005284  -0.000222   0.000010
    22  H   -0.000241  -0.000043   0.007281  -0.000003  -0.000051  -0.000308
    23  C    0.000146  -0.000028  -0.000053   0.000004  -0.000029   0.000013
    24  H    0.000001  -0.000001   0.000011  -0.000000   0.000000  -0.000000
    25  H   -0.000006  -0.000005  -0.000215   0.000007  -0.000003   0.000003
    26  H    0.000016   0.000024  -0.000147   0.000001   0.000002   0.000004
    27  C   -0.000076   0.000011  -0.000222   0.000003  -0.000003   0.000002
    28  H    0.000001  -0.000000  -0.000003  -0.000000   0.000000   0.000000
    29  H    0.000000  -0.000000   0.000003  -0.000000  -0.000000   0.000000
    30  H    0.000003  -0.000000   0.000002   0.000000   0.000000  -0.000003
              19         20         21         22         23         24
     1  C    0.394495  -0.029753  -0.030610  -0.033903  -0.010432   0.000255
     2  C   -0.062114  -0.005508   0.006421  -0.005949  -0.059485   0.005275
     3  C   -0.009573   0.000104   0.000284  -0.004052   0.366634  -0.029007
     4  C   -0.002861   0.000030   0.000095  -0.000182  -0.065555  -0.000469
     5  C   -0.001703   0.000105  -0.001012   0.001073  -0.010856  -0.000083
     6  C   -0.070036   0.006419  -0.004874  -0.005777  -0.002943  -0.000053
     7  H    0.007343  -0.000073  -0.000192  -0.000265   0.007892  -0.000196
     8  H   -0.009209   0.004830   0.000004  -0.000113  -0.011912   0.000161
     9  H    0.000137   0.000005  -0.000001  -0.000062   0.007080  -0.000179
    10  H   -0.000012  -0.000002  -0.000004   0.000013  -0.007009   0.002184
    11  H    0.000081   0.000001  -0.000034  -0.000067   0.000422  -0.000005
    12  H    0.004340  -0.000014   0.000374  -0.001783  -0.003717   0.000177
    13  H    0.007191  -0.000205  -0.000060  -0.000241   0.000146   0.000001
    14  H   -0.009048  -0.000001   0.005743  -0.000043  -0.000028  -0.000001
    15  C   -0.064320  -0.005958  -0.008215   0.007281  -0.000053   0.000011
    16  H   -0.005666  -0.000228   0.005284  -0.000003   0.000004  -0.000000
    17  H   -0.006005   0.005049  -0.000222  -0.000051  -0.000029   0.000000
    18  H    0.006937  -0.000027   0.000010  -0.000308   0.000013  -0.000000
    19  C    5.216375   0.372375   0.357814   0.373126  -0.023738   0.002603
    20  H    0.372375   0.580942  -0.030043  -0.034159  -0.003836  -0.000028
    21  H    0.357814  -0.030043   0.596763  -0.027562   0.000809  -0.000081
    22  H    0.373126  -0.034159  -0.027562   0.618147  -0.008614   0.002257
    23  C   -0.023738  -0.003836   0.000809  -0.008614   5.267219   0.351359
    24  H    0.002603  -0.000028  -0.000081   0.002257   0.351359   0.593793
    25  H   -0.004774   0.002651   0.000850  -0.010295   0.376048  -0.029264
    26  H   -0.035971   0.000752   0.001243  -0.002894   0.379507  -0.026144
    27  C   -0.000119  -0.000029   0.000008   0.000109  -0.057375  -0.013682
    28  H   -0.000038  -0.000001   0.000000  -0.000011  -0.005350   0.000535
    29  H   -0.000003   0.000000  -0.000000   0.000010  -0.007845   0.006426
    30  H    0.000025   0.000000  -0.000000  -0.000008   0.007078   0.000421
              25         26         27         28         29         30
     1  C   -0.004484   0.002463   0.004801   0.000077  -0.000184   0.000062
     2  C   -0.005815   0.001768  -0.057416  -0.005015   0.005863  -0.005943
     3  C   -0.032415  -0.040359   0.388733  -0.029947  -0.026447  -0.030435
     4  C    0.006380  -0.009696  -0.056896   0.006196  -0.004896  -0.006124
     5  C    0.000170   0.003918   0.005543  -0.000235   0.000022   0.000044
     6  C    0.000511   0.000320   0.000507   0.000001  -0.000001  -0.000046
     7  H    0.000067  -0.000315  -0.007050  -0.000346   0.000031   0.005803
     8  H    0.006815   0.000083  -0.005423   0.005203  -0.000056  -0.000313
     9  H   -0.000232   0.000207  -0.006517  -0.000009  -0.000293   0.005492
    10  H    0.000004   0.000674  -0.006157  -0.000047   0.005478  -0.000315
    11  H    0.000002  -0.000419  -0.000165   0.000003  -0.000002  -0.000001
    12  H   -0.000378   0.008811  -0.000053   0.000004  -0.000008   0.000007
    13  H   -0.000006   0.000016  -0.000076   0.000001   0.000000   0.000003
    14  H   -0.000005   0.000024   0.000011  -0.000000  -0.000000  -0.000000
    15  C   -0.000215  -0.000147  -0.000222  -0.000003   0.000003   0.000002
    16  H    0.000007   0.000001   0.000003  -0.000000  -0.000000   0.000000
    17  H   -0.000003   0.000002  -0.000003   0.000000  -0.000000   0.000000
    18  H    0.000003   0.000004   0.000002   0.000000   0.000000  -0.000003
    19  C   -0.004774  -0.035971  -0.000119  -0.000038  -0.000003   0.000025
    20  H    0.002651   0.000752  -0.000029  -0.000001   0.000000   0.000000
    21  H    0.000850   0.001243   0.000008   0.000000  -0.000000  -0.000000
    22  H   -0.010295  -0.002894   0.000109  -0.000011   0.000010  -0.000008
    23  C    0.376048   0.379507  -0.057375  -0.005350  -0.007845   0.007078
    24  H   -0.029264  -0.026144  -0.013682   0.000535   0.006426   0.000421
    25  H    0.570269  -0.035685   0.000068   0.002078  -0.000103  -0.000238
    26  H   -0.035685   0.582595   0.005820  -0.000035   0.000038  -0.000273
    27  C    0.000068   0.005820   5.154646   0.367379   0.363997   0.367117
    28  H    0.002078  -0.000035   0.367379   0.580702  -0.030686  -0.030405
    29  H   -0.000103   0.000038   0.363997  -0.030686   0.579214  -0.029805
    30  H   -0.000238  -0.000273   0.367117  -0.030405  -0.029805   0.580384
 Mulliken charges:
               1
     1  C    0.084492
     2  C   -0.261826
     3  C    0.114393
     4  C   -0.251199
     5  C   -0.279197
     6  C   -0.242571
     7  H    0.112049
     8  H    0.116137
     9  H    0.119513
    10  H    0.121928
    11  H    0.125022
    12  H    0.131096
    13  H    0.117568
    14  H    0.121113
    15  C   -0.438678
    16  H    0.137812
    17  H    0.136743
    18  H    0.136026
    19  C   -0.437650
    20  H    0.136603
    21  H    0.127207
    22  H    0.134328
    23  C   -0.485432
    24  H    0.133737
    25  H    0.157989
    26  H    0.163694
    27  C   -0.447564
    28  H    0.139948
    29  H    0.139247
    30  H    0.137471
 Sum of Mulliken charges =  -0.00000
 Mulliken charges with hydrogens summed into heavy atoms:
               1
     1  C    0.084492
     2  C   -0.033639
     3  C    0.114393
     4  C   -0.009758
     5  C   -0.023079
     6  C   -0.003890
    15  C   -0.028097
    19  C   -0.039512
    23  C   -0.030012
    27  C   -0.030898
 Electronic spatial extent (au):  <R**2>=           1498.7622
 Charge=             -0.0000 electrons
 Dipole moment (field-independent basis, Debye):
    X=             -0.1671    Y=              0.0937    Z=              0.0298  Tot=              0.1939
 Quadrupole moment (field-independent basis, Debye-Ang):
   XX=            -68.0370   YY=            -66.4924   ZZ=            -67.0643
   XY=              0.0652   XZ=             -0.1393   YZ=             -0.2056
 Traceless Quadrupole moment (field-independent basis, Debye-Ang):
   XX=             -0.8391   YY=              0.7055   ZZ=              0.1336
   XY=              0.0652   XZ=             -0.1393   YZ=             -0.2056
 Octapole moment (field-independent basis, Debye-Ang**2):
  XXX=             -1.1138  YYY=             -3.3844  ZZZ=             -4.0029  XYY=              0.2158
  XXY=              3.0466  XXZ=              2.9431  XZZ=             -0.4052  YZZ=              1.8752
  YYZ=              1.3557  XYZ=              0.0432
 Hexadecapole moment (field-independent basis, Debye-Ang**3):
 XXXX=          -1112.5623 YYYY=           -552.9525 ZZZZ=           -420.4003 XXXY=              2.1862
 XXXZ=             -0.4753 YYYX=             -0.8775 YYYZ=             -5.3000 ZZZX=             -0.4064
 ZZZY=              1.6306 XXYY=           -281.7093 XXZZ=           -260.2211 YYZZ=           -165.2712
 XXYZ=             -0.5261 YYXZ=              0.4738 ZZXY=              0.1684
 N-N= 6.211963964580D+02 E-N=-2.150607738555D+03  KE= 3.898925779201D+02
 Calling FoFJK, ICntrl=      2127 FMM=F ISym2X=0 I1Cent= 0 IOpClX= 0 NMat=1 NMatS=1 NMatT=0.
 ***** Axes restored to original set *****
 -------------------------------------------------------------------
 Center     Atomic                   Forces (Hartrees/Bohr)
 Number     Number              X              Y              Z
 -------------------------------------------------------------------
      1        6          -0.014857734   -0.019372171   -0.013681981
      2        6           0.009795278   -0.015609165    0.007743865
      3        6           0.022597216    0.005187987   -0.010809712
      4        6           0.008070868    0.011821430    0.016902765
      5        6          -0.015189390    0.021689413    0.011401151
      6        6          -0.013543740   -0.003080621    0.016158585
      7        1          -0.003249696    0.004356906   -0.010365384
      8        1          -0.002728017    0.004435364    0.012027549
      9        1          -0.003605176    0.006321528   -0.010016648
     10        1          -0.002336900   -0.012557410    0.002794611
     11        1           0.003032257   -0.004093022   -0.013144283
     12        1           0.001345828   -0.003953185    0.017350073
     13        1          -0.004306753    0.005696903   -0.009808568
     14        1           0.012887373   -0.002501941    0.002924363
     15        6           0.008534023    0.021599998    0.000693713
     16        1          -0.018257165   -0.003552655   -0.000113589
     17        1           0.004695407   -0.012608060   -0.012958687
     18        1           0.004090735   -0.011219007    0.015003013
     19        6          -0.007719290   -0.006510790    0.018200503
     20        1           0.003626884   -0.007970118   -0.016308525
     21        1          -0.019331656   -0.002256859   -0.002300956
     22        1          -0.021271824   -0.006976422   -0.008460178
     23        6           0.023382684    0.005059431    0.012012856
     24        1           0.012352036    0.013510282   -0.006144521
     25        1           0.003584819   -0.002688132   -0.015152671
     26        1           0.002644917    0.018202485   -0.006605898
     27        6          -0.022948310   -0.001420145    0.000925715
     28        1           0.010091684   -0.008642645   -0.013310247
     29        1           0.009682666    0.015605706    0.000380311
     30        1           0.008930976   -0.008475084    0.014662775
 -------------------------------------------------------------------
 Cartesian Forces:  Max     0.023382684 RMS     0.011418694

 GradGradGradGradGradGradGradGradGradGradGradGradGradGradGradGradGradGrad
 Berny optimization.
 FormGI is forming the generalized inverse of G from B-inverse, IUseBI=4.
 Internal  Forces:  Max     0.041940053 RMS     0.014908783
 Search for a local minimum.
 Step number   1 out of a maximum of  180
 All quantities printed in internal units (Hartrees-Bohrs-Radians)
 Mixed Optimization -- RFO/linear search
 Second derivative matrix not updated -- first step.
 ITU=  0
     Eigenvalues ---    0.00237   0.00237   0.00237   0.00237   0.00751
     Eigenvalues ---    0.00754   0.00851   0.02183   0.02290   0.03955
     Eigenvalues ---    0.04255   0.04300   0.04546   0.04954   0.04960
     Eigenvalues ---    0.05019   0.05157   0.05165   0.05720   0.05720
     Eigenvalues ---    0.05720   0.05720   0.05720   0.05720   0.05720
     Eigenvalues ---    0.05720   0.05741   0.06437   0.06622   0.07084
     Eigenvalues ---    0.08180   0.08186   0.08196   0.08199   0.08900
     Eigenvalues ---    0.08941   0.12093   0.13283   0.13376   0.14581
     Eigenvalues ---    0.15379   0.16000   0.16000   0.16000   0.16000
     Eigenvalues ---    0.16000   0.16000   0.16000   0.16000   0.16000
     Eigenvalues ---    0.16000   0.16000   0.16000   0.18593   0.27804
     Eigenvalues ---    0.28519   0.28519   0.28519   0.28519   0.28983
     Eigenvalues ---    0.29096   0.30833   0.30841   0.30842   0.31380
     Eigenvalues ---    0.31385   0.31386   0.31386   0.31463   0.31465
     Eigenvalues ---    0.31467   0.31472   0.37230   0.37230   0.37230
     Eigenvalues ---    0.37230   0.37230   0.37230   0.37230   0.37230
     Eigenvalues ---    0.37230   0.37230   0.37230   0.37230
 RFO step:  Lambda=-1.42258660D-01 EMin= 2.36824229D-03
 Linear search not attempted -- first point.
 Maximum step size (   0.300) exceeded in Quadratic search.
    -- Step size scaled by   0.613
 Iteration  1 RMS(Cart)=  0.15029891 RMS(Int)=  0.00575353
 Iteration  2 RMS(Cart)=  0.00992329 RMS(Int)=  0.00064134
 Iteration  3 RMS(Cart)=  0.00006297 RMS(Int)=  0.00064041
 Iteration  4 RMS(Cart)=  0.00000004 RMS(Int)=  0.00064041
 Variable       Old X    -DE/DX   Delta X   Delta X   Delta X     New X
                                 (Linear)    (Quad)   (Total)
    R1        2.86314   0.04167   0.00000   0.06052   0.06081   2.92394
    R2        2.86291   0.02016   0.00000   0.02718   0.02712   2.89003
    R3        2.91018   0.00590   0.00000   0.00845   0.00845   2.91863
    R4        2.91018   0.01333   0.00000   0.01910   0.01910   2.92928
    R5        2.86327   0.04054   0.00000   0.05906   0.05940   2.92268
    R6        2.11983  -0.01158   0.00000  -0.01555  -0.01555   2.10429
    R7        2.11838  -0.01277   0.00000  -0.01712  -0.01712   2.10126
    R8        2.86376   0.02152   0.00000   0.02950   0.02953   2.89328
    R9        2.91018   0.01898   0.00000   0.02720   0.02720   2.93738
   R10        2.91018   0.00598   0.00000   0.00858   0.00858   2.91875
   R11        2.86317   0.03459   0.00000   0.04315   0.04287   2.90605
   R12        2.11982  -0.01226   0.00000  -0.01647  -0.01647   2.10335
   R13        2.11821  -0.01275   0.00000  -0.01709  -0.01709   2.10112
   R14        2.86307   0.03368   0.00000   0.04183   0.04150   2.90457
   R15        2.11830  -0.01360   0.00000  -0.01823  -0.01823   2.10007
   R16        2.11992  -0.01639   0.00000  -0.02202  -0.02202   2.09791
   R17        2.11982  -0.01203   0.00000  -0.01616  -0.01616   2.10366
   R18        2.11834  -0.01311   0.00000  -0.01758  -0.01758   2.10077
   R19        2.02201   0.01825   0.00000   0.02173   0.02173   2.04374
   R20        2.02201   0.01832   0.00000   0.02181   0.02181   2.04382
   R21        2.02201   0.01875   0.00000   0.02232   0.02232   2.04433
   R22        2.02201   0.01805   0.00000   0.02150   0.02150   2.04350
   R23        2.02201   0.01939   0.00000   0.02308   0.02308   2.04509
   R24        2.02201  -0.01262   0.00000  -0.01503  -0.01503   2.00698
   R25        2.02201   0.01915   0.00000   0.02280   0.02280   2.04481
   R26        2.02201   0.01229   0.00000   0.01463   0.01463   2.03664
   R27        2.02201   0.00621   0.00000   0.00739   0.00739   2.02940
   R28        2.02201   0.01845   0.00000   0.02197   0.02197   2.04397
   R29        2.02201   0.01805   0.00000   0.02150   0.02150   2.04350
   R30        2.02201   0.01873   0.00000   0.02230   0.02230   2.04430
    A1        1.94271  -0.02881   0.00000  -0.05535  -0.05563   1.88708
    A2        1.91248   0.00041   0.00000  -0.00619  -0.00549   1.90699
    A3        1.90946   0.03679   0.00000   0.09090   0.09137   2.00084
    A4        1.91244   0.01720   0.00000   0.02405   0.02335   1.93580
    A5        1.90952   0.00272   0.00000   0.00601   0.00662   1.91614
    A6        1.87599  -0.02823   0.00000  -0.05935  -0.05914   1.81686
    A7        1.94364   0.04194   0.00000   0.09871   0.09998   2.04362
    A8        1.90933  -0.02209   0.00000  -0.05859  -0.05729   1.85204
    A9        1.91217  -0.00218   0.00000   0.00621   0.00285   1.91503
   A10        1.90923  -0.01989   0.00000  -0.05414  -0.05282   1.85641
   A11        1.91225  -0.00440   0.00000   0.00170  -0.00184   1.91041
   A12        1.87595   0.00523   0.00000   0.00243   0.00223   1.87818
   A13        1.94153  -0.02979   0.00000  -0.05735  -0.05775   1.88377
   A14        1.90983   0.03554   0.00000   0.08780   0.08831   1.99814
   A15        1.91271   0.00172   0.00000  -0.00402  -0.00332   1.90939
   A16        1.90967   0.00530   0.00000   0.01275   0.01337   1.92303
   A17        1.91264   0.01686   0.00000   0.02325   0.02267   1.93530
   A18        1.87630  -0.02954   0.00000  -0.06237  -0.06213   1.81418
   A19        1.94195   0.02456   0.00000   0.04368   0.04373   1.98568
   A20        1.90958  -0.00059   0.00000  -0.00264  -0.00230   1.90729
   A21        1.91265  -0.01366   0.00000  -0.02027  -0.02136   1.89129
   A22        1.90980  -0.02316   0.00000  -0.04955  -0.04901   1.86079
   A23        1.91244   0.00945   0.00000   0.02807   0.02763   1.94007
   A24        1.87623   0.00259   0.00000  -0.00099  -0.00077   1.87546
   A25        1.94385  -0.01976   0.00000  -0.02918  -0.02876   1.91510
   A26        1.91216   0.00023   0.00000  -0.00906  -0.00969   1.90247
   A27        1.90917   0.01349   0.00000   0.03108   0.03100   1.94017
   A28        1.91227   0.00059   0.00000  -0.00825  -0.00886   1.90341
   A29        1.90924   0.01204   0.00000   0.02730   0.02719   1.93643
   A30        1.87588  -0.00604   0.00000  -0.01109  -0.01081   1.86507
   A31        1.94248   0.02326   0.00000   0.03987   0.03973   1.98221
   A32        1.90958  -0.00047   0.00000  -0.00168  -0.00132   1.90826
   A33        1.91233  -0.01297   0.00000  -0.01902  -0.01992   1.89241
   A34        1.90974  -0.02204   0.00000  -0.04634  -0.04581   1.86393
   A35        1.91241   0.00903   0.00000   0.02677   0.02644   1.93885
   A36        1.87608   0.00240   0.00000  -0.00117  -0.00099   1.87509
   A37        1.91063   0.00350   0.00000   0.00708   0.00705   1.91768
   A38        1.91063   0.00362   0.00000   0.00732   0.00729   1.91792
   A39        1.91063   0.00424   0.00000   0.00863   0.00859   1.91923
   A40        1.91063  -0.00362   0.00000  -0.00740  -0.00743   1.90321
   A41        1.91063  -0.00383   0.00000  -0.00772  -0.00775   1.90288
   A42        1.91063  -0.00391   0.00000  -0.00790  -0.00794   1.90270
   A43        1.91063   0.00270   0.00000   0.00621   0.00585   1.91648
   A44        1.91063  -0.00514   0.00000  -0.01309  -0.01301   1.89763
   A45        1.91063   0.02461   0.00000   0.05180   0.05153   1.96217
   A46        1.91063  -0.00335   0.00000  -0.01061  -0.01062   1.90001
   A47        1.91063  -0.00729   0.00000  -0.00945  -0.01010   1.90053
   A48        1.91063  -0.01153   0.00000  -0.02486  -0.02470   1.88593
   A49        1.91063  -0.00436   0.00000  -0.01253  -0.01238   1.89825
   A50        1.91063   0.00958   0.00000   0.02163   0.02120   1.93183
   A51        1.91063   0.01631   0.00000   0.03454   0.03415   1.94479
   A52        1.91063  -0.00618   0.00000  -0.01550  -0.01539   1.89524
   A53        1.91063  -0.01125   0.00000  -0.02722  -0.02704   1.88359
   A54        1.91063  -0.00410   0.00000  -0.00092  -0.00181   1.90883
   A55        1.91063   0.00364   0.00000   0.00736   0.00733   1.91796
   A56        1.91063   0.00326   0.00000   0.00661   0.00658   1.91721
   A57        1.91063   0.00423   0.00000   0.00860   0.00856   1.91920
   A58        1.91063  -0.00351   0.00000  -0.00717  -0.00719   1.90344
   A59        1.91063  -0.00395   0.00000  -0.00801  -0.00804   1.90259
   A60        1.91063  -0.00367   0.00000  -0.00739  -0.00742   1.90322
    D1       -0.96330   0.01526   0.00000   0.05067   0.05214  -0.91115
    D2        1.14929   0.00267   0.00000   0.00744   0.00781   1.15710
    D3       -3.08159  -0.00519   0.00000  -0.02027  -0.02017  -3.10176
    D4       -3.08143   0.01220   0.00000   0.06082   0.06171  -3.01972
    D5       -0.96884  -0.00039   0.00000   0.01759   0.01737  -0.95147
    D6        1.08347  -0.00824   0.00000  -0.01011  -0.01061   1.07286
    D7        1.14914   0.02461   0.00000   0.08310   0.08328   1.23243
    D8       -3.02145   0.01202   0.00000   0.03987   0.03895  -2.98250
    D9       -0.96914   0.00416   0.00000   0.01216   0.01097  -0.95818
   D10        0.96137  -0.00964   0.00000  -0.03179  -0.03136   0.93000
   D11       -1.15128   0.00326   0.00000   0.00162   0.00160  -1.14968
   D12        3.07920   0.00819   0.00000   0.01512   0.01495   3.09415
   D13        3.07952  -0.01638   0.00000  -0.05958  -0.05898   3.02054
   D14        0.96688  -0.00348   0.00000  -0.02617  -0.02602   0.94086
   D15       -1.08583   0.00145   0.00000  -0.01268  -0.01267  -1.09850
   D16       -1.15104  -0.03893   0.00000  -0.11392  -0.11331  -1.26435
   D17        3.01950  -0.02604   0.00000  -0.08051  -0.08035   2.93915
   D18        0.96679  -0.02111   0.00000  -0.06702  -0.06700   0.89980
   D19       -3.12092  -0.01740   0.00000  -0.04260  -0.04289   3.11937
   D20       -1.02653  -0.01748   0.00000  -0.04285  -0.04314  -1.06967
   D21        1.06787  -0.01746   0.00000  -0.04277  -0.04306   1.02481
   D22        1.02599   0.00701   0.00000   0.01465   0.01479   1.04078
   D23        3.12038   0.00693   0.00000   0.01440   0.01454   3.13492
   D24       -1.06841   0.00696   0.00000   0.01448   0.01462  -1.05379
   D25       -1.04749   0.01055   0.00000   0.02847   0.02862  -1.01887
   D26        1.04690   0.01047   0.00000   0.02822   0.02836   1.07527
   D27        3.14130   0.01049   0.00000   0.02830   0.02845  -3.11344
   D28        1.02716   0.00672   0.00000   0.00714   0.00597   1.03313
   D29        3.12155   0.00112   0.00000  -0.01007  -0.01135   3.11020
   D30       -1.06724  -0.00108   0.00000  -0.01681  -0.01836  -1.08559
   D31       -3.12357  -0.00373   0.00000   0.00046   0.00135  -3.12222
   D32       -1.02917  -0.00933   0.00000  -0.01674  -0.01597  -1.04515
   D33        1.06522  -0.01152   0.00000  -0.02349  -0.02298   1.04224
   D34       -1.04821   0.00210   0.00000  -0.00164  -0.00087  -1.04908
   D35        1.04618  -0.00350   0.00000  -0.01885  -0.01819   1.02799
   D36        3.14058  -0.00570   0.00000  -0.02559  -0.02520   3.11538
   D37        0.96442  -0.01684   0.00000  -0.05523  -0.05655   0.90787
   D38       -1.14768  -0.02792   0.00000  -0.09263  -0.09262  -1.24030
   D39        3.08217  -0.01397   0.00000  -0.06620  -0.06692   3.01525
   D40       -1.14823  -0.00297   0.00000  -0.00940  -0.00980  -1.15803
   D41        3.02285  -0.01404   0.00000  -0.04680  -0.04587   2.97698
   D42        0.96952  -0.00010   0.00000  -0.02037  -0.02017   0.94935
   D43        3.08266   0.00490   0.00000   0.01834   0.01810   3.10077
   D44        0.97056  -0.00618   0.00000  -0.01906  -0.01796   0.95260
   D45       -1.08277   0.00777   0.00000   0.00737   0.00774  -1.07503
   D46       -0.96406   0.01130   0.00000   0.03731   0.03689  -0.92717
   D47        1.14832  -0.00226   0.00000   0.00169   0.00177   1.15009
   D48       -3.08180  -0.00745   0.00000  -0.01289  -0.01268  -3.09448
   D49        1.14814   0.04010   0.00000   0.11871   0.11798   1.26612
   D50       -3.02267   0.02655   0.00000   0.08310   0.08286  -2.93981
   D51       -0.96960   0.02136   0.00000   0.06852   0.06842  -0.90119
   D52       -3.08185   0.01727   0.00000   0.06421   0.06358  -3.01827
   D53       -0.96948   0.00372   0.00000   0.02859   0.02846  -0.94102
   D54        1.08359  -0.00148   0.00000   0.01401   0.01401   1.09761
   D55       -2.56133  -0.00455   0.00000  -0.00143   0.00004  -2.56129
   D56       -0.46693  -0.00892   0.00000  -0.01483  -0.01361  -0.48054
   D57        1.62746   0.00191   0.00000   0.01844   0.02020   1.64767
   D58        1.59054   0.00627   0.00000   0.00543   0.00450   1.59504
   D59       -2.59825   0.00190   0.00000  -0.00798  -0.00915  -2.60739
   D60       -0.50385   0.01273   0.00000   0.02529   0.02466  -0.47919
   D61       -0.48530   0.00019   0.00000   0.00652   0.00592  -0.47938
   D62        1.60909  -0.00417   0.00000  -0.00689  -0.00773   1.60136
   D63       -2.57970   0.00666   0.00000   0.02638   0.02609  -2.55361
   D64        1.05154   0.01724   0.00000   0.04229   0.04261   1.09415
   D65       -3.13725   0.01717   0.00000   0.04206   0.04238  -3.09487
   D66       -1.04286   0.01725   0.00000   0.04232   0.04265  -1.00021
   D67       -3.09658  -0.00777   0.00000  -0.01656  -0.01673  -3.11331
   D68       -1.00219  -0.00784   0.00000  -0.01679  -0.01696  -1.01914
   D69        1.09221  -0.00776   0.00000  -0.01652  -0.01669   1.07551
   D70       -1.02264  -0.00917   0.00000  -0.02452  -0.02467  -1.04731
   D71        1.07176  -0.00924   0.00000  -0.02474  -0.02490   1.04686
   D72       -3.11704  -0.00916   0.00000  -0.02448  -0.02463   3.14152
   D73        0.96409   0.01048   0.00000   0.03047   0.02967   0.99376
   D74        3.08253  -0.00157   0.00000  -0.00514  -0.00547   3.07706
   D75       -1.14854  -0.00086   0.00000  -0.00566  -0.00623  -1.15476
   D76       -1.14816   0.01080   0.00000   0.03859   0.03834  -1.10983
   D77        0.97028  -0.00125   0.00000   0.00298   0.00320   0.97347
   D78        3.02240  -0.00054   0.00000   0.00246   0.00244   3.02483
   D79        3.08195   0.01571   0.00000   0.05242   0.05255   3.13450
   D80       -1.08279   0.00367   0.00000   0.01682   0.01741  -1.06539
   D81        0.96933   0.00438   0.00000   0.01629   0.01665   0.98598
   D82       -0.96260  -0.01073   0.00000  -0.03168  -0.03102  -0.99362
   D83        1.14995  -0.01099   0.00000  -0.03893  -0.03872   1.11124
   D84       -3.08039  -0.01571   0.00000  -0.05185  -0.05195  -3.13234
   D85       -3.08097   0.00153   0.00000   0.00440   0.00463  -3.07634
   D86       -0.96842   0.00126   0.00000  -0.00285  -0.00306  -0.97149
   D87        1.08442  -0.00346   0.00000  -0.01577  -0.01629   1.06812
   D88        1.14999   0.00145   0.00000   0.00667   0.00712   1.15711
   D89       -3.02065   0.00119   0.00000  -0.00058  -0.00057  -3.02122
   D90       -0.96781  -0.00353   0.00000  -0.01351  -0.01380  -0.98161
         Item               Value     Threshold  Converged?
 Maximum Force            0.041940     0.000002     NO 
 RMS     Force            0.014909     0.000001     NO 
 Maximum Displacement     0.748029     0.000006     NO 
 RMS     Displacement     0.153733     0.000004     NO 
 Predicted change in Energy=-7.591551D-02
 GradGradGradGradGradGradGradGradGradGradGradGradGradGradGradGradGradGrad

                          Input orientation:                          
 ---------------------------------------------------------------------
 Center     Atomic      Atomic             Coordinates (Angstroms)
 Number     Number       Type             X           Y           Z
 ---------------------------------------------------------------------
      1          6           0       -3.063695   -1.139438   -0.032078
      2          6           0       -1.518537   -1.062656   -0.058108
      3          6           0       -0.882879    0.347078   -0.033564
      4          6           0       -1.485448    1.115419    1.145719
      5          6           0       -3.023107    1.136508    1.151066
      6          6           0       -3.561720   -0.303057    1.147461
      7          1           0       -1.167772   -1.581057    0.862868
      8          1           0       -1.129336   -1.629314   -0.932081
      9          1           0       -1.170448    0.633059    2.098073
     10          1           0       -1.069966    2.146728    1.140844
     11          1           0       -3.374736    1.653193    2.069978
     12          1           0       -3.419078    1.710622    0.287316
     13          1           0       -3.228442   -0.773584    2.099704
     14          1           0       -4.673328   -0.314199    1.141624
     15          6           0       -3.498147   -2.614192    0.115407
     16          1           0       -4.576999   -2.677251    0.157199
     17          1           0       -3.143515   -3.188504   -0.729658
     18          1           0       -3.084990   -3.031877    1.023791
     19          6           0       -3.756126   -0.670548   -1.337267
     20          1           0       -3.418830   -1.274578   -2.168382
     21          1           0       -4.825629   -0.793536   -1.226689
     22          1           0       -3.562917    0.351061   -1.553900
     23          6           0       -1.060742    1.156953   -1.348330
     24          1           0       -0.187952    1.779698   -1.494263
     25          1           0       -1.155589    0.494874   -2.193422
     26          1           0       -1.920413    1.798795   -1.300508
     27          6           0        0.648566    0.216728    0.119016
     28          1           0        1.060611   -0.302973   -0.735409
     29          1           0        1.095967    1.199043    0.184302
     30          1           0        0.884306   -0.338931    1.016768
 ---------------------------------------------------------------------
                    Distance matrix (angstroms):
                    1          2          3          4          5
     1  C    0.000000
     2  C    1.547283   0.000000
     3  C    2.639259   1.546614   0.000000
     4  C    2.993735   2.488836   1.531060   0.000000
     5  C    2.565425   2.926116   2.570432   1.537813   0.000000
     6  C    1.529337   2.490980   2.998947   2.514554   1.537031
     7  H    2.142540   1.113540   2.145334   2.729817   3.303102
     8  H    2.189001   1.111938   2.184994   3.460871   3.946598
     9  H    3.356139   2.765092   2.169874   1.113046   2.140708
    10  H    4.018655   3.455264   2.157075   1.111867   2.198957
    11  H    3.509156   3.917916   3.512859   2.170914   1.111309
    12  H    2.889836   3.379711   2.897330   2.197737   1.110164
    13  H    2.169213   2.768301   3.362793   2.741614   2.142551
    14  H    2.156274   3.457203   4.023165   3.493766   2.197241
    15  C    1.544473   2.521155   3.953598   4.361478   3.919948
    16  H    2.165821   3.465178   4.778020   4.991914   4.236402
    17  H    2.166024   2.758760   4.253864   4.978953   4.717769
    18  H    2.167172   2.738998   4.169487   4.446736   4.170786
    19  C    1.550110   2.607068   3.315231   3.809315   3.161419
    20  H    2.169834   2.847679   3.690293   4.520322   4.121730
    21  H    2.156654   3.517792   4.274321   4.519871   3.553571
    22  H    2.187865   2.900944   3.081240   3.491141   2.867954
    23  C    3.319300   2.607856   1.554395   2.530293   3.177778
    24  H    4.350775   3.451373   2.160779   3.015670   3.930593
    25  H    3.314099   2.667808   2.182018   3.412294   3.883931
    26  H    3.398415   3.145309   2.188403   2.576864   2.768533
    27  C    3.955111   2.522803   1.544538   2.532939   3.923303
    28  H    4.266643   2.772699   2.166173   3.468846   4.723097
    29  H    4.776830   3.465498   2.165443   2.755906   4.231467
    30  H    4.162643   2.729980   2.167198   2.783432   4.178855
                    6          7          8          9         10
     6  C    0.000000
     7  H    2.728601   0.000000
     8  H    3.464093   1.796008   0.000000
     9  H    2.738277   2.535360   3.781779   0.000000
    10  H    3.494328   3.739413   4.308019   1.793760   0.000000
    11  H    2.170926   4.097338   4.982874   2.429064   2.533542
    12  H    2.194334   4.029241   4.229068   3.081610   2.537130
    13  H    1.113210   2.535377   3.785530   2.492788   3.755883
    14  H    1.111679   3.737855   4.311573   3.752634   4.363528
    15  C    2.531900   2.656447   2.771007   4.460245   5.441869
    16  H    2.765539   3.649992   3.764450   5.131251   6.044635
    17  H    3.467603   3.003928   2.555184   5.147174   6.021883
    18  H    2.772909   2.409668   3.101161   4.272155   5.558055
    19  C    2.519269   3.516987   2.825497   4.492960   4.614492
    20  H    3.458190   3.788095   2.626035   5.186225   5.307869
    21  H    2.733975   4.285598   3.801039   5.142914   5.324976
    22  H    2.779428   3.912871   3.198571   4.374967   4.086670
    23  C    3.823022   3.521015   2.818023   3.487720   2.678755
    24  H    4.764335   4.220283   3.581008   3.896787   2.802935
    25  H    4.193765   3.694664   2.470596   4.293745   3.722000
    26  H    3.619976   4.082899   3.537439   3.670387   2.608547
    27  C    4.365133   2.661659   2.770129   2.720075   2.778917
    28  H    4.991106   3.025505   2.567826   3.725909   3.749762
    29  H    4.987788   3.648824   3.768008   3.019850   2.550362
    30  H    4.448091   2.403661   3.085102   2.517141   3.164344
                   11         12         13         14         15
    11  H    0.000000
    12  H    1.784138   0.000000
    13  H    2.431365   3.080969   0.000000
    14  H    2.533538   2.530392   1.793502   0.000000
    15  C    4.695333   4.328951   2.719928   2.779233   0.000000
    16  H    4.884354   4.539949   3.035767   2.561716   1.081501
    17  H    5.597630   5.011148   3.720798   3.755483   1.081542
    18  H    4.809194   4.810957   2.505605   3.149997   1.081814
    19  C    4.141806   2.902214   3.478770   2.667048   2.440198
    20  H    5.151455   3.865472   4.301604   3.667728   2.648877
    21  H    4.354261   3.246753   3.690026   2.421129   2.622636
    22  H    3.855315   2.293289   3.837384   2.990222   3.403454
    23  C    4.157602   2.922950   4.507198   4.627628   4.722817
    24  H    4.782824   3.690389   5.355411   5.608110   5.731902
    25  H    4.943976   3.571483   4.933218   4.914430   4.525987
    26  H    3.673749   2.185168   4.459767   4.243500   4.895765
    27  C    4.696450   4.336563   4.464867   5.445197   5.020892
[...]
 00001451,-0.00011224,-0.00008122,-0.00000735,0.00002643,0.00002614,-0.
 00000219,0.00001011,0.00004790,-0.00003869,0.00014336,-0.00004256,0.00
 001948,0.00003107,0.00005299,0.00005213,-0.00005781,0.00009667,-0.0000
 1510,-0.00007457,0.00010847,-0.00004876,-0.12019635,-0.22149876,-0.015
 28459,0.13309495,0.24140706,-0.00040711,0.00008471,-0.00003717,-0.0015
 5202,0.00161555,-0.00499087,0.01605533,0.02346337,0.00086449,0.0003181
 5,0.00135284,0.00151109,0.00001375,-0.00011234,-0.00005383,-0.00006658
 ,0.00006293,0.00012156,0.00065648,0.00169800,0.00021233,-0.00015547,0.
 00013566,0.00026381,-0.00023956,-0.00023159,0.00027252,-0.00012649,-0.
 00071783,-0.00027913,0.00003173,-0.00001704,-0.00000546,0.00001463,-0.
 00002661,0.00000311,-0.00001417,0.00000297,0.00003914,0.00001062,-0.00
 006217,-0.00005296,0.00021374,-0.00004003,-0.00000652,0.00008617,0.000
 06996,0.00001894,-0.00001846,-0.00000461,-0.00000520,-0.00000538,-0.00
 006217,0.00006851,-0.00010676,0.00003302,-0.00012456,0.00003358,0.0001
 6399,0.00006357,-0.00001780,-0.00008474,0.00014887,0.00011597,-0.00019
 642,-0.00003558,-0.00987832,-0.01600494,-0.05002235,0.01295183,0.01397
 864,0.05345515,-0.00000553,0.00000585,0.00009056,-0.00002397,0.0003883
 7,0.00059290,-0.00058568,-0.00190957,-0.00184714,0.00008572,-0.0001096
 8,-0.00063632,-0.00004712,0.00029379,-0.00025890,0.00014267,0.00010432
 ,0.00009214,-0.00002601,-0.00011860,-0.00019283,0.00009775,-0.00038159
 ,-0.00003965,0.00028903,0.00009054,-0.00006467,-0.00004668,0.00025656,
 0.00003871,0.00007220,-0.00010136,0.00013694,0.00040612,-0.00020278,0.
 00011204,-0.00002711,-0.00011637,-0.00003176,-0.00000979,-0.00002337,-
 0.00001535,0.00000234,-0.00001456,-0.00002879,0.00000618,-0.00000264,-
 0.00000060,-0.00000079,-0.00005130,-0.00001111,-0.00001022,0.00001662,
 -0.00002475,0.00009461,0.00007877,-0.00000247,-0.00012861,-0.00041522,
 -0.00011934,0.00006233,-0.00000481,-0.00016436,0.00012758,0.00028810,0
 .00026288,-0.07424525,0.04307204,0.06306784,0.00656838,-0.01004220,-0.
 01649342,0.07552685,-0.00009820,-0.00009432,-0.00003507,-0.00044548,0.
 00145653,0.00087166,-0.00603933,0.00884191,0.01440265,0.00060281,-0.00
 191758,0.00293822,0.00020589,-0.00003151,0.00009725,0.00006673,0.00003
 913,-0.00004767,0.00008658,0.00029626,-0.00011634,0.00015040,-0.000156
 15,-0.00018533,-0.00034809,0.00077031,0.00089636,0.00016122,0.00031015
 ,0.00021109,-0.00003564,0.00001201,-0.00004835,-0.00018822,0.00002281,
 -0.00009032,0.00001826,0.00005835,0.00000627,0.00001893,-0.00001966,-0
 .00001289,0.00000058,-0.00001529,0.00000407,0.00001781,0.00000366,-0.0
 0000371,-0.00001325,-0.00000280,0.00000150,-0.00000060,-0.00000470,0.0
 0000764,0.00003364,-0.00013758,-0.00006462,-0.00008305,0.00007827,0.00
 004083,0.00002510,0.00003885,0.00003149,-0.00001453,0.00001644,-0.0000
 5767,0.04318049,-0.12313830,-0.11009480,0.00968418,-0.01392011,-0.0207
 2353,-0.04807719,0.13239165,0.00010490,0.00015918,0.00000315,-0.000005
 12,-0.00203917,0.00051211,0.00925836,-0.01549164,-0.02229695,-0.002077
 80,0.00469013,-0.00369585,-0.00066792,0.00004392,-0.00007827,-0.000087
 31,-0.00021430,-0.00001355,-0.00029822,-0.00001675,0.00049354,0.000050
 53,0.00119829,0.00068724,0.00094386,-0.00066968,-0.00176148,-0.0001429
 5,0.00017044,0.00042035,0.00020317,-0.00003101,0.00006006,0.00014557,-
 0.00005913,0.00016092,-0.00001405,-0.00002013,0.00005010,0.00005135,0.
 00011390,0.00005186,0.00004699,0.00000212,0.00004617,-0.00000667,0.000
 01187,-0.00000989,0.00000615,0.00005830,0.00002461,-0.00000210,-0.0000
 1419,0.00000244,0.00005146,-0.00015855,-0.00013565,0.00001073,0.000129
 90,0.00015875,-0.00004135,0.00003697,0.00006494,0.00007508,0.00010823,
 -0.00005789,0.06290066,-0.10949236,-0.20919724,0.00004029,-0.00087757,
 -0.00126292,-0.06942198,0.11892632,0.22927099,-0.00016622,0.00051631,-
 0.00005832,0.00016692,-0.00004027,-0.00035451,-0.00075544,-0.00039515,
 -0.00040915,-0.00024415,0.00055894,0.00021594,-0.00053295,0.00013105,0
 .00019799,0.00014088,-0.00005829,0.00018397,0.00006569,0.00011731,-0.0
 0007790,-0.00001336,-0.00000985,-0.00004487,0.00007705,-0.00013757,-0.
 00013782,-0.00011350,-0.00004985,-0.00012012,0.00019834,-0.00008705,0.
 00013023,0.00001777,-0.00019345,0.00123346,-0.00003753,-0.00009977,0.0
 0006670,0.00003673,-0.00001293,-0.00003893,0.00008727,-0.00005249,-0.0
 0000441,0.00005583,0.00004873,-0.00002024,-0.00002021,-0.00000792,-0.0
 0000549,0.00000918,-0.00002380,0.00003341,-0.00230715,-0.00087132,0.00
 010567,0.00012762,0.00028444,-0.00013191,-0.00015850,-0.00057512,0.000
 14163,-0.00173906,-0.00267214,0.00013312,-0.28710737,0.07442960,-0.041
 96963,-0.01691406,0.00537801,-0.00214351,-0.00887182,0.00177118,-0.001
 36239,0.31674843,0.00020183,-0.00031536,0.00055530,0.00045870,0.000601
 74,-0.00055560,0.01719647,-0.00472074,0.00056026,0.00002527,0.00030882
 ,-0.00084167,0.00010808,0.00009390,0.00001938,-0.00017211,0.00007294,0
 .00010495,-0.00012160,0.00008231,0.00001746,0.00002901,-0.00010437,0.0
 0003520,0.00001032,-0.00012821,-0.00002816,-0.00018245,0.00001666,0.00
 006122,-0.00015519,0.00000807,-0.00013995,-0.00003827,0.00035616,-0.00
 022072,0.00002237,-0.00000458,-0.00012513,-0.00004579,-0.00001802,0.00
 002950,-0.00020706,-0.00001124,-0.00022409,-0.00003967,-0.00003515,0.0
 0001928,0.00001789,-0.00001653,0.00001725,-0.00000959,0.00013364,-0.00
 009605,-0.00016950,-0.00142985,0.00019143,-0.00001569,0.00001320,-0.00
 002836,0.00007253,0.00046672,-0.00018566,-0.00198579,0.00018303,-0.000
 05707,0.07296796,-0.07176649,0.01309738,-0.02667487,0.00940042,-0.0042
 3955,0.01735856,-0.00545682,0.00358641,-0.07895089,0.07346417,0.000068
 23,0.00056383,0.00011537,0.00013757,-0.00081105,0.00067491,-0.02734606
 ,0.00537752,-0.00271371,-0.00072588,-0.00013763,0.00129893,-0.00004257
 ,0.00051993,-0.00103953,0.00018897,0.00015840,0.00013025,-0.00001525,-
 0.00011486,-0.00008954,0.00011089,0.00014982,-0.00001385,0.00002870,-0
 .00000771,0.00035135,-0.00002341,-0.00022188,-0.00017237,0.00010070,-0
 .00024877,0.00034004,0.00132432,-0.00039884,-0.00057024,-0.00005336,-0
 .00015888,0.00001699,-0.00000623,-0.00001974,-0.00002246,0.00012700,-0
 .00001494,-0.00006552,0.00002694,0.00003454,-0.00000332,-0.00000537,-0
 .00005147,-0.00001588,-0.00000367,-0.00001211,0.00002355,-0.00011182,0
 .00013302,-0.00016401,-0.00004852,-0.00026784,-0.00005469,0.00000204,-
 0.00012233,-0.00003503,0.00003525,-0.00011830,0.00083476,-0.04138989,0
 .01305880,-0.05666018,-0.00253647,0.00054273,-0.00108862,0.02575710,-0
 .00656963,0.00528956,0.04538248,-0.01537997,0.05886905,0.00050590,-0.0
 0103338,-0.00058556,-0.02395819,-0.00709480,-0.00237833,-0.16474612,0.
 01378386,-0.01401212,-0.02070616,0.00613385,0.00462792,0.00040082,0.00
 081853,0.00105435,0.00006601,-0.00000093,-0.00003445,-0.00008709,0.001
 60282,-0.00073618,0.00098005,0.00136661,0.00034643,0.00044008,-0.00030
 517,-0.00165136,0.00105530,-0.00100806,-0.00106488,-0.00023852,-0.0000
 5321,-0.00005584,-0.00003119,0.00009530,-0.00002830,-0.00003512,0.0000
 0187,0.00001547,0.00005813,0.00001923,-0.00005539,-0.00012870,0.000080
 81,0.00000678,0.00001308,-0.00007466,0.00003280,-0.00001997,-0.0000216
 8,-0.00000031,0.00000168,-0.00003851,0.00003821,-0.00007627,-0.0001060
 8,0.00005830,-0.00001775,-0.00000617,-0.00001932,0.00000079,0.00008326
 ,-0.00004512,-0.00008697,0.00001917,-0.00003459,-0.00939959,0.00603527
 ,-0.00812639,0.00048663,-0.00130818,0.00121335,0.00048307,-0.00058122,
 0.00129334,0.00090152,-0.00077889,0.00071980,0.46387043,-0.00042333,-0
 .00549891,-0.00097086,-0.03272504,0.00010653,-0.00307282,0.01322520,-0
 .07771844,0.00024601,0.01949833,-0.00289454,0.00026050,0.00047925,-0.0
 0206544,-0.00236696,0.00005744,-0.00057644,-0.00065339,-0.00247646,0.0
 0042361,-0.00063993,-0.00032562,0.00038905,0.00005053,-0.00045513,0.00
 068436,0.00131697,0.00082138,-0.00015541,0.00035442,0.00108907,0.00017
 139,-0.00015610,-0.00003044,-0.00003142,0.00013471,-0.00001016,0.00004
 861,0.00010555,-0.00006269,0.00019537,0.00016907,-0.00171116,0.0005455
 5,0.00012019,-0.00033336,-0.00068635,0.00017910,0.00002926,0.00004384,
 -0.00005950,0.00007847,-0.00002369,0.00009055,-0.00001532,-0.00027147,
 0.00049726,0.00000852,0.00000462,-0.00004245,-0.00021698,0.00013507,-0
 .00021180,-0.00013435,0.00016331,-0.00012325,0.01942650,-0.00556438,0.
 00726167,0.00161601,0.00001587,0.00051991,-0.00059457,0.00032305,-0.00
 109700,0.00098370,-0.00191892,0.00325749,0.01673134,0.57918939,0.00006
 689,-0.00033769,-0.00052357,-0.00432888,-0.00040210,0.00001445,-0.0153
 4893,0.00067483,-0.07821713,0.02796057,-0.00404306,0.00173497,0.001087
 78,-0.00301270,-0.00476267,-0.00016767,-0.00062193,0.00015113,0.001389
 04,0.00137088,0.00030536,-0.00082986,-0.00000860,-0.00033558,0.0019465
 8,-0.00057196,0.00043493,-0.00014730,0.00041929,0.00032201,0.00190845,
 -0.00006730,-0.00015756,0.00011532,-0.00015642,0.00013407,-0.00000179,
 0.00009891,-0.00008350,0.00005616,0.00018829,0.00001895,-0.00010001,0.
 00003767,0.00032772,-0.00002333,-0.00004500,-0.00002542,-0.00001150,0.
 00006606,-0.00000444,0.00002067,-0.00002476,-0.00002549,-0.00014285,0.
 00024450,0.00009217,0.00000772,0.00002846,0.00004635,-0.00005124,-0.00
 009045,-0.00000397,0.00020976,-0.00008293,-0.00006584,-0.03074813,0.00
 966164,-0.00990481,-0.00074698,-0.00103970,0.00091984,-0.00082797,-0.0
 0011974,0.00046065,-0.00132008,0.00314266,-0.00513366,-0.01753065,-0.0
 0082534,0.57915306,-0.00000705,-0.00005120,-0.00020481,0.00146578,0.00
 133600,0.00095510,-0.01285980,0.01627560,0.02601492,-0.00670214,-0.000
 37988,-0.00269263,0.00011781,0.00135145,0.00188190,0.00031181,0.000362
 48,0.00002570,0.00000143,-0.00017157,0.00001964,-0.00019024,-0.0007256
 2,-0.00069553,0.00005799,-0.00034695,-0.00016314,0.00005682,0.00028028
 ,-0.00009430,-0.00084626,-0.00002005,0.00006011,-0.00006910,0.00004563
 ,-0.00009249,0.00000814,-0.00003445,0.00000295,-0.00001708,-0.00013468
 ,-0.00008011,0.00003720,-0.00004580,-0.00005676,0.00002499,0.00002333,
 -0.00000102,-0.00001773,-0.00005688,-0.00002581,-0.00001182,0.00001275
 ,0.00000298,0.00006065,0.00001898,-0.00002599,-0.00002573,-0.00004141,
 -0.00005557,0.00003717,0.00000009,0.00001094,-0.00001324,-0.00001028,0
 .00004966,0.00118902,-0.00034646,0.00153448,-0.00001971,0.00004469,-0.
 00021138,0.00006167,0.00001721,-0.00098234,0.00018605,-0.00048384,-0.0
 0007676,-0.09080782,0.05144422,0.08009305,0.09941596,0.00015293,-0.000
 02863,0.00005171,-0.00067885,0.00032879,0.00052639,0.00155387,-0.00352
 522,-0.00325026,0.00158562,0.00046003,0.00116350,-0.00036809,0.0001010
 6,-0.00061421,0.00010991,-0.00001590,0.00008809,0.00010480,0.00004754,
 0.00015469,-0.00004468,0.00044502,-0.00003715,-0.00021101,0.00006639,-
 0.00025230,-0.00025911,0.00039776,0.00021522,0.00021716,-0.00001066,0.
 00000337,-0.00000302,-0.00002421,0.00004277,-0.00000911,0.00001624,-0.
 00000321,0.00004002,0.00007265,-0.00001579,0.00000627,-0.00001327,0.00
 003584,0.00001612,0.00000468,-0.00001080,-0.00000987,0.00001002,0.0000
 0245,-0.00000416,-0.00000494,0.00000429,0.00000101,0.00002818,-0.00003
 541,-0.00000298,0.00002185,0.00001661,0.00000929,-0.00001561,0.0000152
 8,0.00001494,-0.00002321,-0.00001477,-0.00009607,-0.00002454,-0.000744
 05,0.00004857,-0.00017109,-0.00014051,0.00030247,0.00019325,0.00057061
 ,-0.00022858,0.00008054,0.00026178,0.05156655,-0.11272167,-0.09804920,
 -0.05802452,0.11819193,0.00009215,0.00029344,0.00006872,-0.00024791,0.
 00000227,0.00024074,-0.00216081,0.00326123,0.00323905,-0.00022966,0.00
 050140,0.00015245,-0.00045337,-0.00021824,0.00054526,-0.00005640,0.000
 00978,-0.00001524,0.00009958,-0.00007862,-0.00021449,0.00030313,0.0002
 5725,0.00030028,-0.00016044,-0.00009541,0.00061658,-0.00007428,-0.0000
 8575,-0.00004856,-0.00003885,-0.00000565,0.00004262,0.00023352,-0.0000
 1480,-0.00000211,-0.00002005,-0.00000208,0.00002285,0.00002938,0.00004
 986,0.00002564,0.00005473,-0.00002199,-0.00000450,0.00000135,0.0000235
 8,-0.00000369,0.00000807,0.00002541,0.00003213,0.00000373,-0.00000947,
 -0.00001277,-0.00002169,-0.00001359,-0.00000730,0.00000330,0.00001121,
 0.00002491,0.00000408,0.00000521,-0.00000545,-0.00001395,0.00001179,-0
 .00001617,-0.00057210,0.00043152,0.00076236,0.00008832,0.00002172,-0.0
 0002486,-0.00008787,-0.00013318,0.00034662,0.00012496,-0.00000436,0.00
 025528,0.08054701,-0.09815149,-0.20284575,-0.08835261,0.10893669,0.218
 57004,0.00054453,-0.00197626,-0.00046793,-0.00680962,0.00259249,-0.000
 54929,-0.01523893,-0.02905340,-0.00303648,0.00144077,-0.00143778,-0.00
 063560,0.00006573,0.00025025,-0.00010490,0.00028209,-0.00024858,-0.000
 26242,0.00002076,0.00035357,0.00022958,0.00005664,-0.00003217,-0.00028
 762,-0.00001362,0.00006442,0.00016828,-0.00010838,0.00098219,0.0003647
 6,0.00003486,0.00005010,0.00001335,0.00004851,-0.00001388,-0.00000655,
 -0.00000195,0.00001215,0.00002917,-0.00002323,0.00013932,0.00007312,-0
 .00072945,0.00023214,0.00005518,-0.00013886,-0.00027914,0.00006395,0.0
 0002145,0.00002459,-0.00002267,0.00003335,-0.00000298,0.00002261,-0.00
 004047,-0.00011314,0.00021909,0.00000934,-0.00000402,-0.00000857,-0.00
 010730,0.00005035,-0.00009677,-0.00001914,0.00007948,-0.00004253,0.000
 68212,-0.00166603,0.00106567,0.00034912,0.00101703,-0.00058599,0.00001
 522,0.00015182,-0.00001996,0.00034246,0.00032162,0.00033717,-0.1046375
 0,-0.10575535,-0.01129670,0.00684513,0.01256774,0.00018046,0.11492916,
 0.00066343,0.00022238,-0.00026641,-0.00030356,0.00057846,0.00041196,0.
 00253970,0.00330918,0.00101876,0.00040900,0.00054593,-0.00001692,-0.00
 014024,0.00020296,0.00019400,0.00001608,0.00001996,0.00000088,0.000222
 24,0.00041196,-0.00036094,0.00019781,0.00008645,0.00007067,-0.00011949
 ,-0.00011636,0.00000166,-0.00023452,0.00035812,0.00026215,-0.00008056,
 0.00002759,0.00001649,0.00000948,0.00000215,-0.00001949,0.00001390,0.0
 0000676,-0.00000606,-0.00005166,0.00004534,0.00004504,-0.00002814,0.00
 005537,0.00000417,-0.00005379,-0.00000177,-0.00000103,0.00001766,0.000
 00814,0.00000754,0.00001502,0.00000886,-0.00001986,-0.00016368,-0.0000
 6167,0.00006069,0.00001660,0.00000052,0.00001049,-0.00007171,0.0000176
 1,-0.00005233,-0.00000905,0.00003945,-0.00001188,0.00074970,0.00043892
 ,0.00017800,0.00016459,0.00052619,-0.00020644,-0.00001545,-0.00004068,
 0.00010033,0.00006311,0.00037954,-0.00011688,-0.10650897,-0.24983415,-
 0.02119462,-0.00703058,-0.01378612,-0.00053248,0.11685261,0.27097242,0
 .00021311,-0.00042124,0.00054479,-0.00112970,0.00089370,-0.00028071,-0
 .00207107,-0.00411806,-0.00210650,0.00048549,0.00053982,0.00016136,-0.
 00006512,-0.00007377,-0.00014179,-0.00008559,0.00006230,-0.00003864,0.
 00020101,-0.00043921,0.00035665,0.00021911,0.00035776,0.00025795,-0.00
 001093,0.00019827,-0.00004699,0.00014911,-0.00007300,0.00029103,0.0000
 1813,0.00001680,-0.00000530,-0.00005704,0.00001209,-0.00001321,0.00000
 071,-0.00000140,0.00001821,-0.00002553,-0.00000971,0.00003603,-0.00017
 190,0.00003560,-0.00002461,-0.00002180,-0.00005700,0.00001926,0.000010
 05,-0.00000346,-0.00000361,-0.00000232,-0.00000428,0.00001591,0.000163
 65,-0.00001937,0.00001066,0.00000340,-0.00000089,-0.00000990,0.0000116
 3,0.00000488,0.00001994,-0.00000991,0.00002514,-0.00000295,-0.00063739
 ,-0.00126022,0.00003762,-0.00030599,0.00057166,-0.00010312,-0.00008897
 ,-0.00003352,-0.00002319,0.00026162,0.00013981,0.00000171,-0.01114348,
 -0.02093052,-0.05191591,-0.01303886,-0.02293553,-0.00184269,0.01330504
 ,0.02282393,0.05093599,0.00001134,-0.00004768,0.00032247,0.00094030,0.
 00205246,-0.00112260,-0.00479909,0.01652352,-0.02655606,0.00119102,-0.
 00012677,-0.00197043,0.00005971,-0.00029080,0.00008407,0.00000618,0.00
 003739,-0.00004913,-0.00020846,-0.00102722,0.00044127,-0.00000677,-0.0
 0011230,0.00009538,-0.00001427,-0.00002120,0.00102964,-0.00000803,-0.0
 0002872,0.00013649,0.00001750,-0.00001500,0.00002539,0.00021994,-0.000
 04412,0.00000347,-0.00002640,-0.00003195,0.00005284,0.00002594,-0.0000
 1128,0.00000854,-0.00000661,-0.00003530,0.00001504,0.00001680,0.000003
 69,0.00000481,-0.00000289,0.00000911,0.00000720,-0.00001424,-0.0000389
 6,0.00002938,0.00012546,0.00012298,-0.00004838,0.00000029,0.00001264,0
 .00001386,0.00002635,-0.00006406,0.00006024,0.00010448,-0.00006335,0.0
 0001226,-0.00664664,0.00053130,0.00000197,0.00004146,0.00018311,0.0003
 0711,-0.00001313,-0.00026804,-0.00005229,-0.00018040,0.00124057,-0.001
 96188,-0.05428652,0.01978126,-0.03123811,0.00171009,-0.00835721,0.0107
 1623,0.00214721,-0.00713953,0.01382353,0.05956942,0.00000562,0.0001220
 2,-0.00016894,-0.00095275,0.00026166,-0.00100315,0.00006145,-0.0042736
 9,0.00368562,-0.00027633,-0.00031575,0.00122203,-0.00000840,0.00013551
 ,-0.00039776,0.00001343,0.00000844,0.00006999,-0.00051954,0.00035926,-
 0.00013496,-0.00008547,-0.00000437,-0.00008734,0.00039084,0.00013408,-
 0.00082008,0.00005705,0.00005683,0.00004505,0.00006104,-0.00001720,-0.
 00001418,-0.00021183,0.00002735,-0.00002482,0.00001158,0.00002784,-0.0
 0002992,0.00000034,-0.00001189,-0.00002036,0.00008078,-0.00001628,-0.0
 0002930,0.00002197,0.00002537,0.00000027,-0.00000793,-0.00001389,-0.00
 000699,-0.00000605,0.00000420,0.00000457,-0.00001078,-0.00008075,0.000
 01257,-0.00000490,-0.00001494,-0.00000334,0.00001124,0.00005032,-0.000
 01875,-0.00004820,0.00003870,-0.00000091,0.00185660,-0.00028250,-0.000
 34568,0.00011173,0.00056738,-0.00031104,-0.00007475,0.00008286,0.00027
 456,0.00018406,0.00026443,0.00071493,0.02058143,-0.12247838,0.11476031
 ,-0.00330853,0.00989915,-0.01447525,0.00484084,-0.01442351,0.02469940,
 -0.02277454,0.12986777,0.00004030,-0.00034713,0.00042335,0.00061723,0.
 00079378,-0.00042068,-0.00007691,0.00242317,-0.00558419,0.00084805,-0.
 00070234,0.00043332,-0.00010877,-0.00006600,0.00029612,-0.00000305,0.0
 0006844,-0.00003826,-0.00027238,-0.00089411,0.00064986,-0.00001968,0.0
 0008866,0.00006778,0.00010381,0.00006115,0.00065699,0.00005655,-0.0001
 1422,-0.00000883,-0.00008858,-0.00002616,0.00002876,0.00016287,-0.0000
 7648,0.00004047,-0.00000832,-0.00002501,0.00004467,-0.00000165,-0.0000
 2673,0.00000200,-0.00009890,-0.00000051,-0.00002461,0.00000959,-0.0000
 2856,0.00001594,-0.00000514,-0.00000119,-0.00001274,-0.00001488,-0.000
 02484,0.00004716,0.00015101,0.00009410,-0.00008964,0.00000243,0.000025
 79,0.00000217,0.00001477,-0.00006567,0.00006835,0.00007561,-0.00006709
 ,0.00002319,-0.00267695,-0.00013193,0.00069132,0.00024635,-0.00016043,
 0.00013025,0.00020715,-0.00009896,0.00042882,-0.00001190,0.00054885,-0
 .00035914,-0.03245152,0.11473751,-0.23011036,-0.00380132,0.01401388,-0
 .02020196,0.00129652,-0.00240142,0.00385200,0.03580770,-0.12759655,0.2
 4894789\\0.,0.00000001,-0.00000007,-0.00000002,-0.00000007,-0.00000033
 ,-0.00000005,0.,-0.00000007,0.00000022,-0.00000024,0.00000023,0.000000
 22,-0.00000029,0.00000051,0.00000016,-0.00000030,0.00000029,0.00000008
 ,-0.00000015,-0.00000056,-0.00000021,0.00000028,-0.00000048,0.00000036
 ,-0.00000052,0.00000001,0.00000021,-0.00000031,0.00000044,0.00000037,-
 0.00000056,0.00000066,0.00000004,-0.00000006,0.00000074,0.00000035,-0.
 00000051,0.00000003,0.00000022,-0.00000030,0.00000043,0.00000004,0.,-0
 .00000038,0.00000004,-0.00000007,-0.00000022,-0.00000012,0.00000016,-0
 .00000063,0.00000021,-0.00000030,-0.00000055,-0.00000023,0.00000035,0.
 00000011,-0.00000040,0.00000058,-0.00000004,-0.00000024,0.00000034,0.0
 0000030,-0.00000027,0.00000042,0.00000045,-0.00000024,0.00000041,0.000
 00023,-0.00000020,0.00000034,0.00000030,-0.00000038,0.00000057,-0.0000
 0005,-0.00000027,0.00000039,0.00000045,0.,-0.00000001,-0.00000041,-0.0
 0000014,0.00000017,-0.00000062,0.00000007,-0.00000005,-0.00000023,0.00
 000018,-0.00000028,-0.00000055\\\@
 The archive entry for this job was punched.


 A DANDELION FROM A LOVER MEANS MORE THAN AN ORCHID FROM A FRIEND.
 Job cpu time:       0 days  0 hours 23 minutes 58.5 seconds.
 Elapsed time:       0 days  0 hours  1 minutes 32.0 seconds.
 File lengths (MBytes):  RWF=    124 Int=      0 D2E=      0 Chk=      6 Scr=      1
 Normal termination of Gaussian 16 at Tue Mar 14 10:30:41 2023.
