/usr/local/Chem-Apps/rung09_d01
 Entering Gaussian System, Link 0=/usr/local/Chem-Apps/Gaussian/g09_d01/g09
 Initial command:
 /usr/local/Chem-Apps/Gaussian/g09_d01/l1.exe "/scratch/rp10/LSF_62665/Gau-264557.inp" -scrdir="/scratch/rp10/LSF_62665/"
 Entering Link 1 = /usr/local/Chem-Apps/Gaussian/g09_d01/l1.exe PID=    264558.
  
 Copyright (c) 1988,1990,1992,1993,1995,1998,2003,2009,2013,
            Gaussian, Inc.  All Rights Reserved.
  
 This is part of the Gaussian(R) 09 program.  It is based on
 the Gaussian(R) 03 system (copyright 2003, Gaussian, Inc.),
 the Gaussian(R) 98 system (copyright 1998, Gaussian, Inc.),
 the Gaussian(R) 94 system (copyright 1995, Gaussian, Inc.),
 the Gaussian 92(TM) system (copyright 1992, Gaussian, Inc.),
 the Gaussian 90(TM) system (copyright 1990, Gaussian, Inc.),
 the Gaussian 88(TM) system (copyright 1988, Gaussian, Inc.),
 the Gaussian 86(TM) system (copyright 1986, Carnegie Mellon
 University), and the Gaussian 82(TM) system (copyright 1983,
 Carnegie Mellon University). Gaussian is a federally registered
 trademark of Gaussian, Inc.
  
 This software contains proprietary and confidential information,
 including trade secrets, belonging to Gaussian, Inc.
  
 This software is provided under written license and may be
 used, copied, transmitted, or stored only in accord with that
 written license.
  
 The following legend is applicable only to US Government
 contracts under FAR:
  
                    RESTRICTED RIGHTS LEGEND
  
 Use, reproduction and disclosure by the US Government is
 subject to restrictions as set forth in subparagraphs (a)
 and (c) of the Commercial Computer Software - Restricted
 Rights clause in FAR 52.227-19.
  
 Gaussian, Inc.
 340 Quinnipiac St., Bldg. 40, Wallingford CT 06492
  
  
 ---------------------------------------------------------------
 Warning -- This program may not be used in any manner that
 competes with the business of Gaussian, Inc. or will provide
 assistance to any competitor of Gaussian, Inc.  The licensee
 of this program is prohibited from giving any competitor of
 Gaussian, Inc. access to this program.  By using this program,
 the user acknowledges that Gaussian, Inc. is engaged in the
 business of creating and licensing software in the field of
 computational chemistry and represents and warrants to the
 licensee that it is not a competitor of Gaussian, Inc. and that
 it will not use this program in any manner prohibited above.
 ---------------------------------------------------------------
  

 Cite this work as:
 Gaussian 09, Revision D.01,
 M. J. Frisch, G. W. Trucks, H. B. Schlegel, G. E. Scuseria, 
 M. A. Robb, J. R. Cheeseman, G. Scalmani, V. Barone, B. Mennucci, 
 G. A. Petersson, H. Nakatsuji, M. Caricato, X. Li, H. P. Hratchian, 
 A. F. Izmaylov, J. Bloino, G. Zheng, J. L. Sonnenberg, M. Hada, 
 M. Ehara, K. Toyota, R. Fukuda, J. Hasegawa, M. Ishida, T. Nakajima, 
 Y. Honda, O. Kitao, H. Nakai, T. Vreven, J. A. Montgomery, Jr., 
 J. E. Peralta, F. Ogliaro, M. Bearpark, J. J. Heyd, E. Brothers, 
 K. N. Kudin, V. N. Staroverov, T. Keith, R. Kobayashi, J. Normand, 
 K. Raghavachari, A. Rendell, J. C. Burant, S. S. Iyengar, J. Tomasi, 
 M. Cossi, N. Rega, J. M. Millam, M. Klene, J. E. Knox, J. B. Cross, 
 V. Bakken, C. Adamo, J. Jaramillo, R. Gomperts, R. E. Stratmann, 
 O. Yazyev, A. J. Austin, R. Cammi, C. Pomelli, J. W. Ochterski, 
 R. L. Martin, K. Morokuma, V. G. Zakrzewski, G. A. Voth, 
 P. Salvador, J. J. Dannenberg, S. Dapprich, A. D. Daniels, 
 O. Farkas, J. B. Foresman, J. V. Ortiz, J. Cioslowski, 
 and D. J. Fox, Gaussian, Inc., Wallingford CT, 2013.
 
 ******************************************
 Gaussian 09:  ES64L-G09RevD.01 24-Apr-2013
                25-Jul-2015 
 ******************************************
 %chk=CH3F_F_SN2.chk
 %mem=4GB
 %nprocshared=4
 Will use up to    4 processors via shared memory.
 Default route:  CacheSize=163840
 -------------------------------------
 # B3LYP/aug-cc-pVTZ freq symm(PG=D3H)
 -------------------------------------
 1/4=163840,10=4,30=1,38=1/1,3;
 2/4=163840,12=2,17=6,18=5,19=2314885530821079876,40=1/2;
 3/4=163840,5=16,6=1,7=10,11=2,16=1,25=1,30=1,71=2,74=-5,140=1/1,2,3;
 4/4=163840/1;
 5/4=163840,5=2,38=5,98=1/2;
 8/4=163840,6=4,10=90,11=11/1;
 11/4=163840,6=1,8=1,9=11,15=111,16=1/1,2,10;
 10/4=163840,6=1/2;
 6/4=163840,7=2,8=2,9=2,10=2,18=1,28=1/1;
 7/4=163840,8=1,10=1,25=1/1,2,3,16;
 1/4=163840,10=4,30=1/3;
 99/4=163840/99;
 ----------
 CH3F_F_SN2
 ----------
 Symbolic Z-matrix:
 Charge = -1 Multiplicity = 1
 C                     0.        0.00009   0. 
 H                     0.       -1.06998   0. 
 H                     0.92672   0.53514   0. 
 H                    -0.92672   0.53514   0. 
 F                     0.       -0.00005   1.85242 
 F                     0.       -0.00005  -1.85242 
 

 GradGradGradGradGradGradGradGradGradGradGradGradGradGradGradGradGradGrad
 Berny optimization.
 Initialization pass.
 Trust Radius=3.00D-01 FncErr=1.00D-07 GrdErr=1.00D-07
 Number of steps in this run=      2 maximum allowed number of steps=      2.
 GradGradGradGradGradGradGradGradGradGradGradGradGradGradGradGradGradGrad

                          Input orientation:                          
 ---------------------------------------------------------------------
 Center     Atomic      Atomic             Coordinates (Angstroms)
 Number     Number       Type             X           Y           Z
 ---------------------------------------------------------------------
      1          6           0        0.000000    0.000090    0.000000
      2          1           0        0.000000   -1.069978    0.000000
      3          1           0        0.926720    0.535140    0.000000
      4          1           0       -0.926720    0.535139    0.000000
      5          9           0        0.000000   -0.000047    1.852417
      6          9           0        0.000000   -0.000047   -1.852417
 ---------------------------------------------------------------------
                    Distance matrix (angstroms):
                    1          2          3          4          5
     1  C    0.000000
     2  H    1.070068   0.000000
     3  H    1.070088   1.853433   0.000000
     4  H    1.070088   1.853432   1.853440   0.000000
     5  F    1.852417   2.139206   2.139319   2.139318   0.000000
     6  F    1.852417   2.139206   2.139319   2.139318   3.704834
                    6
     6  F    0.000000
 Symm:  InNGrp=D3H  InAxis=0.
 This structure is nearly, but not quite of a higher symmetry.
 Consider Symm=Loose if the higher symmetry is desired.
 Stoichiometry    CH3F2(1-)
 Framework group  C1[X(CH3F2)]
 Deg. of freedom    12
 Full point group                 C1      NOp   1
 Largest Abelian subgroup         C1      NOp   1
 Largest concise Abelian subgroup C1      NOp   1
                         Standard orientation:                         
 ---------------------------------------------------------------------
 Center     Atomic      Atomic             Coordinates (Angstroms)
 Number     Number       Type             X           Y           Z
 ---------------------------------------------------------------------
      1          6           0        0.000000    0.000005   -0.000090
      2          1           0        0.000000   -0.053863    1.068621
      3          1           0        0.000000    0.952484   -0.487810
      4          1           0        0.000000   -0.898606   -0.581112
      5          9           0       -1.852417   -0.000002    0.000047
      6          9           0        1.852417   -0.000002    0.000047
 ---------------------------------------------------------------------
 Rotational constants (GHZ):    145.9746011      3.8252923      3.8252917
 Standard basis: Aug-CC-pVTZ (5D, 7F)
 There are   240 symmetry adapted cartesian basis functions of A   symmetry.
 There are   207 symmetry adapted basis functions of A   symmetry.
   207 basis functions,   297 primitive gaussians,   240 cartesian basis functions
    14 alpha electrons       14 beta electrons
       nuclear repulsion energy        65.5372383263 Hartrees.
 NAtoms=    6 NActive=    6 NUniq=    6 SFac= 1.00D+00 NAtFMM=   60 NAOKFM=F Big=F
 Integral buffers will be    131072 words long.
 Raffenetti 2 integral format.
 Two-electron integral symmetry is turned on.
 One-electron integrals computed using PRISM.
 NBasis=   207 RedAO= T EigKep=  4.86D-05  NBF=   207
 NBsUse=   207 1.00D-06 EigRej= -1.00D+00 NBFU=   207
 ExpMin= 2.53D-02 ExpMax= 1.95D+04 ExpMxC= 6.65D+02 IAcc=3 IRadAn=         5 AccDes= 0.00D+00
 Harris functional with IExCor=  402 and IRadAn=       5 diagonalized for initial guess.
 HarFok:  IExCor=  402 AccDes= 0.00D+00 IRadAn=         5 IDoV= 1 UseB2=F ITyADJ=14
 ICtDFT=  3500011 ScaDFX=  1.000000  1.000000  1.000000  1.000000
 FoFCou: FMM=F IPFlag=           0 FMFlag=      100000 FMFlg1=           0
         NFxFlg=           0 DoJE=T BraDBF=F KetDBF=T FulRan=T
         wScrn=  0.000000 ICntrl=     500 IOpCl=  0 I1Cent=   200000004 NGrid=           0
         NMat0=    1 NMatS0=      1 NMatT0=    0 NMatD0=    1 NMtDS0=    0 NMtDT0=    0
 Petite list used in FoFCou.
 Keep R1 ints in memory in canonical form, NReq=238931314.
 Requested convergence on RMS density matrix=1.00D-08 within 128 cycles.
 Requested convergence on MAX density matrix=1.00D-06.
 Requested convergence on             energy=1.00D-06.
 No special actions if energy rises.
 SCF Done:  E(RB3LYP) =  -239.704457296     A.U. after    9 cycles
            NFock=  9  Conv=0.90D-08     -V/T= 2.0055
 DoSCS=F DFT=T ScalE2(SS,OS)=  1.000000  1.000000
 Range of M.O.s used for correlation:     1   207
 NBasis=   207 NAE=    14 NBE=    14 NFC=     0 NFV=     0
 NROrb=    207 NOA=    14 NOB=    14 NVA=   193 NVB=   193

 **** Warning!!: The largest alpha MO coefficient is  0.55699785D+02

 Symmetrizing basis deriv contribution to polar:
 IMax=3 JMax=2 DiffMx= 0.00D+00
 G2DrvN: will do     7 centers at a time, making    1 passes.
 Calling FoFCou, ICntrl=  3107 FMM=F I1Cent=   0 AccDes= 0.00D+00.
 End of G2Drv F.D. properties file   721 does not exist.
 End of G2Drv F.D. properties file   722 does not exist.
 End of G2Drv F.D. properties file   788 does not exist.
          IDoAtm=111111
          Differentiating once with respect to electric field.
                with respect to dipole field.
          Differentiating once with respect to nuclear coordinates.
 Keep R1 ints in memory in canonical form, NReq=238739712.
          There are    21 degrees of freedom in the 1st order CPHF.  IDoFFX=6 NUNeed=     3.
     20 vectors produced by pass  0 Test12= 1.29D-14 4.76D-09 XBig12= 4.55D+01 4.47D+00.
 AX will form    20 AO Fock derivatives at one time.
     18 vectors produced by pass  1 Test12= 1.29D-14 4.76D-09 XBig12= 1.49D+01 1.16D+00.
     18 vectors produced by pass  2 Test12= 1.29D-14 4.76D-09 XBig12= 1.46D+00 3.54D-01.
     18 vectors produced by pass  3 Test12= 1.29D-14 4.76D-09 XBig12= 1.02D-02 4.19D-02.
     18 vectors produced by pass  4 Test12= 1.29D-14 4.76D-09 XBig12= 1.89D-05 1.42D-03.
     17 vectors produced by pass  5 Test12= 1.29D-14 4.76D-09 XBig12= 2.00D-08 3.74D-05.
      7 vectors produced by pass  6 Test12= 1.29D-14 4.76D-09 XBig12= 2.34D-11 1.36D-06.
      2 vectors produced by pass  7 Test12= 1.29D-14 4.76D-09 XBig12= 2.15D-14 3.27D-08.
 InvSVY:  IOpt=1 It=  1 EMax= 1.96D-15
 Solved reduced A of dimension   118 with    21 vectors.
 Isotropic polarizability for W=    0.000000       35.05 Bohr**3.
 End of Minotr F.D. properties file   721 does not exist.
 End of Minotr F.D. properties file   722 does not exist.
 End of Minotr F.D. properties file   788 does not exist.

 **********************************************************************

            Population analysis using the SCF density.

 **********************************************************************

 Orbital symmetries:
       Occupied  (A) (A) (A) (A) (A) (A) (A) (A) (A) (A) (A) (A)
                 (A) (A)
       Virtual   (A) (A) (A) (A) (A) (A) (A) (A) (A) (A) (A) (A)
                 (A) (A) (A) (A) (A) (A) (A) (A) (A) (A) (A) (A)
                 (A) (A) (A) (A) (A) (A) (A) (A) (A) (A) (A) (A)
                 (A) (A) (A) (A) (A) (A) (A) (A) (A) (A) (A) (A)
                 (A) (A) (A) (A) (A) (A) (A) (A) (A) (A) (A) (A)
                 (A) (A) (A) (A) (A) (A) (A) (A) (A) (A) (A) (A)
                 (A) (A) (A) (A) (A) (A) (A) (A) (A) (A) (A) (A)
                 (A) (A) (A) (A) (A) (A) (A) (A) (A) (A) (A) (A)
                 (A) (A) (A) (A) (A) (A) (A) (A) (A) (A) (A) (A)
                 (A) (A) (A) (A) (A) (A) (A) (A) (A) (A) (A) (A)
                 (A) (A) (A) (A) (A) (A) (A) (A) (A) (A) (A) (A)
                 (A) (A) (A) (A) (A) (A) (A) (A) (A) (A) (A) (A)
                 (A) (A) (A) (A) (A) (A) (A) (A) (A) (A) (A) (A)
                 (A) (A) (A) (A) (A) (A) (A) (A) (A) (A) (A) (A)
                 (A) (A) (A) (A) (A) (A) (A) (A) (A) (A) (A) (A)
                 (A) (A) (A) (A) (A) (A) (A) (A) (A) (A) (A) (A)
                 (A)
 The electronic state is 1-A.
 Alpha  occ. eigenvalues --  -24.36502 -24.36502 -10.04741  -0.84282  -0.83868
 Alpha  occ. eigenvalues --   -0.49426  -0.25796  -0.25796  -0.18040  -0.11566
 Alpha  occ. eigenvalues --   -0.11566  -0.09676  -0.09676  -0.08820
 Alpha virt. eigenvalues --    0.12245   0.13428   0.13428   0.16874   0.21580
 Alpha virt. eigenvalues --    0.21581   0.22067   0.24495   0.24945   0.28160
 Alpha virt. eigenvalues --    0.28161   0.30127   0.30129   0.32473   0.37554
 Alpha virt. eigenvalues --    0.37555   0.40262   0.40566   0.40567   0.41193
 Alpha virt. eigenvalues --    0.42766   0.44472   0.44473   0.45405   0.49738
 Alpha virt. eigenvalues --    0.49739   0.51864   0.52724   0.52726   0.55150
 Alpha virt. eigenvalues --    0.55170   0.59956   0.69949   0.76811   0.80661
 Alpha virt. eigenvalues --    0.81578   0.81581   0.83491   0.83494   0.89438
 Alpha virt. eigenvalues --    0.89630   0.89633   0.95914   0.98739   0.98739
 Alpha virt. eigenvalues --    1.01160   1.01162   1.06256   1.06258   1.11097
 Alpha virt. eigenvalues --    1.13110   1.14143   1.14150   1.14215   1.14222
 Alpha virt. eigenvalues --    1.14540   1.15965   1.15967   1.18221   1.18223
 Alpha virt. eigenvalues --    1.24783   1.27240   1.27241   1.28549   1.28556
 Alpha virt. eigenvalues --    1.32312   1.37099   1.39024   1.52480   1.53977
 Alpha virt. eigenvalues --    1.53978   1.59307   1.59307   1.59374   1.59377
 Alpha virt. eigenvalues --    1.59634   1.68120   1.73481   1.73491   1.76974
 Alpha virt. eigenvalues --    1.84908   1.84914   1.86017   1.91818   1.91866
 Alpha virt. eigenvalues --    1.91869   2.02812   2.09272   2.09275   2.12837
 Alpha virt. eigenvalues --    2.18364   2.18367   2.64474   2.67231   2.78563
 Alpha virt. eigenvalues --    2.78575   2.83820   2.90181   2.90183   2.92542
 Alpha virt. eigenvalues --    2.92550   2.94606   2.95036   2.95039   2.96389
 Alpha virt. eigenvalues --    3.00394   3.03804   3.03804   3.04632   3.11839
 Alpha virt. eigenvalues --    3.12706   3.12706   3.19240   3.25883   3.25884
 Alpha virt. eigenvalues --    3.29257   3.29260   3.31385   3.42766   3.42769
 Alpha virt. eigenvalues --    3.47548   3.53728   3.65628   3.65630   3.70571
 Alpha virt. eigenvalues --    3.70578   3.75552   3.75556   3.81423   3.83086
 Alpha virt. eigenvalues --    3.90479   3.90481   3.93281   4.19557   4.19565
 Alpha virt. eigenvalues --    4.25658   4.31767   4.31771   4.40563   4.40578
 Alpha virt. eigenvalues --    4.61677   4.64349   4.73114   4.74748   4.74754
 Alpha virt. eigenvalues --    4.75105   4.75119   4.91876   5.10556   5.16339
 Alpha virt. eigenvalues --    5.16340   5.20232   5.20233   5.23244   5.23249
 Alpha virt. eigenvalues --    5.38758   5.47708   5.47712   5.59702   5.59711
 Alpha virt. eigenvalues --    5.65488   5.73976   6.38384   6.38392   6.52678
 Alpha virt. eigenvalues --    6.55926   8.62042   8.62100   8.64128   8.65859
 Alpha virt. eigenvalues --    8.72027   8.72032   8.77533   8.77534   9.03062
 Alpha virt. eigenvalues --    9.03064   9.03397   9.03401   9.06480   9.06482
 Alpha virt. eigenvalues --    9.07732   9.08791   9.13303   9.13309   9.19217
 Alpha virt. eigenvalues --    9.19220   9.24101   9.24104   9.25483   9.38498
 Alpha virt. eigenvalues --   13.16279  13.45259  17.53137
          Condensed to atoms (all electrons):
               1          2          3          4          5          6
     1  C    5.965473   0.276509   0.276751   0.276750  -0.192002  -0.192002
     2  H    0.276509   0.306024   0.026744   0.026733   0.030775   0.030775
     3  H    0.276751   0.026744   0.306031   0.026716   0.030766   0.030766
     4  H    0.276750   0.026733   0.026716   0.305976   0.030723   0.030723
     5  F   -0.192002   0.030775   0.030766   0.030723   9.826834   0.020686
     6  F   -0.192002   0.030775   0.030766   0.030723   0.020686   9.826834
 Mulliken charges:
               1
     1  C   -0.411479
     2  H    0.302438
     3  H    0.302226
     4  H    0.302379
     5  F   -0.747782
     6  F   -0.747782
 Sum of Mulliken charges =  -1.00000
 Mulliken charges with hydrogens summed into heavy atoms:
               1
     1  C    0.495564
     5  F   -0.747782
     6  F   -0.747782
 APT charges:
               1
     1  C    1.118070
     2  H   -0.028261
     3  H   -0.028161
     4  H   -0.028148
     5  F   -1.016750
     6  F   -1.016750
 Sum of APT charges =  -1.00000
 APT charges with hydrogens summed into heavy atoms:
               1
     1  C    1.033501
     5  F   -1.016750
     6  F   -1.016750
 Electronic spatial extent (au):  <R**2>=            295.1028
 Charge=             -1.0000 electrons
 Dipole moment (field-independent basis, Debye):
    X=              0.0000    Y=              0.0001    Z=             -0.0004  Tot=              0.0004
 Quadrupole moment (field-independent basis, Debye-Ang):
   XX=            -44.5663   YY=            -19.5910   ZZ=            -19.5909
   XY=              0.0000   XZ=              0.0000   YZ=              0.0001
 Traceless Quadrupole moment (field-independent basis, Debye-Ang):
   XX=            -16.6502   YY=              8.3251   ZZ=              8.3251
   XY=              0.0000   XZ=              0.0000   YZ=              0.0001
 Octapole moment (field-independent basis, Debye-Ang**2):
  XXX=              0.0000  YYY=              0.1189  ZZZ=              0.7805  XYY=              0.0000
  XXY=              0.0001  XXZ=             -0.0009  XZZ=              0.0000  YZZ=             -0.1188
  YYZ=             -0.7803  XYZ=              0.0000
 Hexadecapole moment (field-independent basis, Debye-Ang**3):
 XXXX=           -373.7621 YYYY=            -27.5915 ZZZZ=            -27.5915 XXXY=              0.0000
 XXXZ=              0.0000 YYYX=              0.0000 YYYZ=              0.0001 ZZZX=              0.0000
 ZZZY=              0.0001 XXYY=            -54.3550 XXZZ=            -54.3552 YYZZ=             -9.1970
 XXYZ=              0.0001 YYXZ=              0.0000 ZZXY=              0.0000
 N-N= 6.553723832634D+01 E-N=-7.085175330981D+02  KE= 2.384048086478D+02
  Exact polarizability:  52.376   0.001  26.393   0.000   0.003  26.388
 Approx polarizability:  64.166   0.000  32.640   0.000   0.000  32.640
 Calling FoFJK, ICntrl=    100127 FMM=F ISym2X=0 I1Cent= 0 IOpClX= 0 NMat=1 NMatS=1 NMatT=0.
 Full mass-weighted force constant matrix:
 Low frequencies --- -481.2886   -0.0018   -0.0007    0.0011    7.3349    8.2418
 Low frequencies ---   24.0546  321.4420  322.2210
 ******    1 imaginary frequencies (negative Signs) ****** 
 Diagonal vibrational polarizability:
      111.5451574       7.0701858       7.0761627
 Harmonic frequencies (cm**-1), IR intensities (KM/Mole), Raman scattering
 activities (A**4/AMU), depolarization ratios for plane and unpolarized
 incident light, reduced masses (AMU), force constants (mDyne/A),
 and normal coordinates:
                      1                      2                      3
                      A                      A                      A
 Frequencies --   -481.2885               321.4388               322.2198
 Red. masses --     12.5029                 4.5170                 4.5210
 Frc consts  --      1.7064                 0.2750                 0.2766
 IR Inten    --    959.9741                26.9726                26.9706
  Atom  AN      X      Y      Z        X      Y      Z        X      Y      Z
     1   6     0.90   0.00   0.00     0.00   0.34  -0.31     0.00   0.31   0.34
     2   1    -0.13   0.00   0.00     0.00   0.37  -0.32     0.00   0.35   0.35
     3   1    -0.13   0.00   0.00     0.00   0.34  -0.33     0.00   0.34   0.38
     4   1    -0.13   0.00   0.00     0.00   0.36  -0.35     0.00   0.32   0.36
     5   9    -0.27   0.00   0.00     0.00  -0.13   0.12     0.00  -0.12  -0.13
     6   9    -0.27   0.00   0.00     0.00  -0.13   0.12     0.00  -0.12  -0.13
                      4                      5                      6
                      A                      A                      A
 Frequencies --    349.9287              1064.4861              1064.7787
 Red. masses --     18.9929                 1.0205                 1.0205
 Frc consts  --      1.3702                 0.6813                 0.6817
 IR Inten    --      0.0002                 0.0001                 0.0000
  Atom  AN      X      Y      Z        X      Y      Z        X      Y      Z
     1   6     0.00   0.00   0.00     0.00   0.00   0.00     0.00   0.00   0.00
     2   1     0.00   0.00   0.01    -0.25   0.00   0.00     0.78   0.00   0.00
     3   1     0.00   0.01  -0.01     0.80   0.00   0.00    -0.17   0.00   0.00
     4   1     0.00  -0.01  -0.01    -0.55   0.00   0.00    -0.61   0.00   0.00
     5   9     0.71   0.00   0.00     0.00  -0.02   0.00     0.00   0.00  -0.02
     6   9    -0.71   0.00   0.00     0.00   0.02   0.00     0.00   0.00   0.02
                      7                      8                      9
                      A                      A                      A
 Frequencies --   1217.2924              1396.4825              1396.7814
 Red. masses --      1.0695                 1.1137                 1.1135
 Frc consts  --      0.9337                 1.2797                 1.2800
 IR Inten    --      0.9780                 2.5516                 2.5583
  Atom  AN      X      Y      Z        X      Y      Z        X      Y      Z
     1   6    -0.02   0.00   0.00     0.00  -0.07   0.07     0.00  -0.07  -0.07
     2   1     0.58   0.00   0.00     0.00   0.57   0.09     0.00   0.57  -0.03
     3   1     0.58   0.00   0.00     0.00  -0.17  -0.14     0.00   0.34   0.71
     4   1     0.57   0.00   0.00     0.00   0.40  -0.67     0.00  -0.19   0.13
     5   9    -0.04   0.00   0.00     0.00   0.00   0.00     0.00   0.00   0.00
     6   9    -0.04   0.00   0.00     0.00   0.00   0.00     0.00   0.00   0.00
                     10                     11                     12
                      A                      A                      A
 Frequencies --   3162.5727              3346.1251              3346.7581
 Red. masses --      1.0078                 1.1261                 1.1261
 Frc consts  --      5.9391                 7.4288                 7.4316
 IR Inten    --      0.0000                12.4672                12.4692
  Atom  AN      X      Y      Z        X      Y      Z        X      Y      Z
     1   6     0.00   0.00   0.00     0.00  -0.09  -0.05     0.00   0.05  -0.09
     2   1     0.00  -0.03   0.58     0.00  -0.03   0.37     0.00  -0.03   0.72
     3   1     0.00   0.51  -0.26     0.00   0.39  -0.21     0.00  -0.61   0.30
     4   1     0.00  -0.49  -0.31     0.00   0.68   0.44     0.00   0.04   0.02
     5   9     0.00   0.00   0.00     0.00   0.00   0.00     0.00   0.00   0.00
     6   9     0.00   0.00   0.00     0.00   0.00   0.00     0.00   0.00   0.00

 -------------------
 - Thermochemistry -
 -------------------
 Temperature   298.150 Kelvin.  Pressure   1.00000 Atm.
 Atom     1 has atomic number  6 and mass  12.00000
 Atom     2 has atomic number  1 and mass   1.00783
 Atom     3 has atomic number  1 and mass   1.00783
 Atom     4 has atomic number  1 and mass   1.00783
 Atom     5 has atomic number  9 and mass  18.99840
 Atom     6 has atomic number  9 and mass  18.99840
 Molecular mass:    53.02028 amu.
 Principal axes and moments of inertia in atomic units:
                           1         2         3
     Eigenvalues --    12.36339 471.79172 471.79178
           X            1.00000   0.00000   0.00000
           Y            0.00000   1.00000   0.00024
           Z            0.00000  -0.00024   1.00000
 This molecule is an asymmetric top.
 Rotational symmetry number  1.
 Rotational temperatures (Kelvin)      7.00567     0.18358     0.18358
 Rotational constants (GHZ):         145.97460     3.82529     3.82529
    1 imaginary frequencies ignored.
 Zero-point vibrational energy     101616.0 (Joules/Mol)
                                   24.28680 (Kcal/Mol)
 Warning -- explicit consideration of   3 degrees of freedom as
           vibrations may cause significant error
 Vibrational temperatures:    462.48   463.60   503.47  1531.56  1531.98
          (Kelvin)           1751.41  2009.22  2009.65  4550.23  4814.32
                             4815.23
 
 Zero-point correction=                           0.038703 (Hartree/Particle)
 Thermal correction to Energy=                    0.042773
 Thermal correction to Enthalpy=                  0.043717
 Thermal correction to Gibbs Free Energy=         0.013142
 Sum of electronic and zero-point Energies=           -239.665754
 Sum of electronic and thermal Energies=              -239.661685
 Sum of electronic and thermal Enthalpies=            -239.660741
 Sum of electronic and thermal Free Energies=         -239.691315
 
                     E (Thermal)             CV                S
                      KCal/Mol        Cal/Mol-Kelvin    Cal/Mol-Kelvin
 Total                   26.840             11.832             64.350
 Electronic               0.000              0.000              0.000
 Translational            0.889              2.981             37.827
 Rotational               0.889              2.981             22.536
 Vibrational             25.063              5.870              3.987
 Vibration     1          0.707              1.632              1.303
 Vibration     2          0.707              1.631              1.299
 Vibration     3          0.727              1.575              1.167
                       Q            Log10(Q)             Ln(Q)
 Total Bot       0.901681D-06         -6.044947        -13.919005
 Total V=0       0.571979D+12         11.757380         27.072369
 Vib (Bot)       0.316424D-17        -17.499731        -40.294619
 Vib (Bot)    1  0.584312D+00         -0.233355         -0.537320
 Vib (Bot)    2  0.582622D+00         -0.234613         -0.540216
 Vib (Bot)    3  0.527273D+00         -0.277964         -0.640036
 Vib (V=0)       0.200723D+01          0.302597          0.696754
 Vib (V=0)    1  0.126904D+01          0.103475          0.238260
 Vib (V=0)    2  0.126776D+01          0.103036          0.237248
 Vib (V=0)    3  0.122665D+01          0.088720          0.204285
 Electronic      0.100000D+01          0.000000          0.000000
 Translational   0.151746D+08          7.181118         16.535136
 Rotational      0.187787D+05          4.273666          9.840479
 ***** Axes restored to original set *****
 -------------------------------------------------------------------
 Center     Atomic                   Forces (Hartrees/Bohr)
 Number     Number              X              Y              Z
 -------------------------------------------------------------------
      1        6          -0.000002943   -0.000003490    0.000000000
      2        1           0.000006357   -0.000001538    0.000000000
      3        1          -0.000003593    0.000000750    0.000000000
      4        1          -0.000002082   -0.000001977    0.000000000
      5        9           0.000001131    0.000003127    0.000002112
      6        9           0.000001131    0.000003127   -0.000002112
 -------------------------------------------------------------------
 Cartesian Forces:  Max     0.000006357 RMS     0.000002543

 GradGradGradGradGradGradGradGradGradGradGradGradGradGradGradGradGradGrad
 Berny optimization.
 Search for a local minimum.
 Step number   1 out of a maximum of    2
 All quantities printed in internal units (Hartrees-Bohrs-Radians)
 Second derivative matrix not updated -- analytic derivatives used.
 The second derivative matrix:
                          X1        Y1        Z1        X2        Y2
           X1           0.70082
           Y1           0.00012   0.70094
           Z1           0.00000   0.00000  -0.07855
           X2          -0.05631  -0.00003   0.00000   0.04420
           Y2           0.00000  -0.37411   0.00000  -0.00002   0.38003
           Z2           0.00000   0.00000  -0.00560   0.00000   0.00000
           X3          -0.29467  -0.13762   0.00000   0.00523   0.00270
           Y3          -0.13763  -0.13579   0.00000  -0.02249  -0.00620
           Z3           0.00000   0.00000  -0.00566   0.00000   0.00000
           X4          -0.29450   0.13752   0.00000   0.00522  -0.00270
           Y4           0.13753  -0.13570   0.00000   0.02246  -0.00619
           Z4           0.00000   0.00000  -0.00558   0.00000   0.00000
           X5          -0.02767   0.00000   0.00002   0.00083   0.00001
           Y5          -0.00001  -0.02768  -0.00002   0.00004   0.00323
           Z5           0.00001  -0.00001   0.04770   0.00001  -0.00261
           X6          -0.02767   0.00000  -0.00002   0.00083   0.00001
           Y6          -0.00001  -0.02768   0.00002   0.00004   0.00323
           Z6          -0.00001   0.00001   0.04770  -0.00001   0.00261
                          Z2        X3        Y3        Z3        X4
           Z2           0.04613
           X3           0.00000   0.29607
           Y3           0.00000   0.14539   0.12811
           Z3           0.00347   0.00000   0.00000   0.04614
           X4           0.00000  -0.01191   0.01259   0.00000   0.29589
           Y4           0.00000  -0.01259   0.01094   0.00000  -0.14533
           Z4           0.00344   0.00000   0.00000   0.00346   0.00000
           X5           0.00003   0.00264   0.00107   0.01066   0.00265
           Y5          -0.01231   0.00106   0.00147   0.00614  -0.00104
           Z5          -0.02372   0.00225   0.00130  -0.02371  -0.00225
           X6          -0.00003   0.00264   0.00107  -0.01066   0.00265
           Y6           0.01231   0.00106   0.00147  -0.00614  -0.00104
           Z6          -0.02372  -0.00225  -0.00130  -0.02371   0.00225
                          Y4        Z4        X5        Y5        Z5
           Y4           0.12808
           Z4           0.00000   0.04609
           X5          -0.00103  -0.01068   0.01613
           Y5           0.00143   0.00619  -0.00005   0.01613
           Z5           0.00131  -0.02371  -0.00002   0.00001   0.05579
           X6          -0.00103   0.01068   0.00542   0.00000   0.00000
           Y6           0.00143  -0.00619   0.00000   0.00542   0.00000
           Z6          -0.00131  -0.02371   0.00000   0.00000  -0.03236
                          X6        Y6        Z6
           X6           0.01613
           Y6          -0.00005   0.01613
           Z6           0.00002  -0.00001   0.05579
 ITU=  0
     Eigenvalues ---   -0.11407   0.02391   0.02404   0.04870   0.04875
     Eigenvalues ---    0.08801   0.09067   0.11010   0.11014   0.38160
     Eigenvalues ---    0.98455   0.98494
 Eigenvalue     1 is  -1.14D-01 should be greater than     0.000000 Eigenvector:
                          Z1        Z5        Z6        Z4        Z2
   1                    0.87929  -0.32831  -0.32831  -0.06146  -0.06144
                          Z3        Y6        Y5        X5        X6
   1                   -0.06105  -0.00004   0.00004   0.00003  -0.00003
 Angle between quadratic step and forces=  53.44 degrees.
 Linear search not attempted -- first point.
 TrRot=  0.000006  0.000030  0.000000  0.000000  0.000000  0.000000
 Variable       Old X    -DE/DX   Delta X   Delta X   Delta X     New X
                                 (Linear)    (Quad)   (Total)
    X1        0.00000   0.00000   0.00000  -0.00003  -0.00002  -0.00002
    Y1        0.00017   0.00000   0.00000  -0.00008  -0.00005   0.00012
    Z1        0.00000   0.00000   0.00000   0.00000   0.00000   0.00000
    X2        0.00000   0.00001   0.00000   0.00000   0.00001   0.00001
    Y2       -2.02197   0.00000   0.00000  -0.00008  -0.00005  -2.02202
    Z2        0.00000   0.00000   0.00000   0.00000   0.00000   0.00000
    X3        1.75125   0.00000   0.00000  -0.00003  -0.00002   1.75123
    Y3        1.01127   0.00000   0.00000  -0.00010  -0.00007   1.01120
    Z3        0.00000   0.00000   0.00000   0.00000   0.00000   0.00000
    X4       -1.75125   0.00000   0.00000  -0.00003  -0.00002  -1.75127
    Y4        1.01127   0.00000   0.00000  -0.00007  -0.00004   1.01123
    Z4        0.00000   0.00000   0.00000   0.00000   0.00000   0.00000
    X5        0.00000   0.00000   0.00000   0.00002   0.00003   0.00003
    Y5       -0.00009   0.00000   0.00000   0.00007   0.00010   0.00001
    Z5        3.50056   0.00000   0.00000   0.00002   0.00002   3.50058
    X6        0.00000   0.00000   0.00000   0.00002   0.00003   0.00003
    Y6       -0.00009   0.00000   0.00000   0.00007   0.00010   0.00001
    Z6       -3.50056   0.00000   0.00000  -0.00002  -0.00002  -3.50058
         Item               Value     Threshold  Converged?
 Maximum Force            0.000006     0.000450     YES
 RMS     Force            0.000003     0.000300     YES
 Maximum Displacement     0.000102     0.001800     YES
 RMS     Displacement     0.000045     0.001200     YES
 Predicted change in Energy=-6.548296D-10
 Optimization completed.
    -- Stationary point found.
 GradGradGradGradGradGradGradGradGradGradGradGradGradGradGradGradGradGrad

 1\1\ RAL UV 2000-SLATER\Freq\RB3LYP\Aug-CC-pVTZ\C1H3F2(1-)\RP10\25-Jul
 -2015\0\\# B3LYP/aug-cc-pVTZ freq symm(PG=D3H)\\CH3F_F_SN2\\-1,1\C,0.,
 0.00009,0.\H,0.,-1.069978,0.\H,0.92672,0.53514,0.\H,-0.92672,0.535139,
 0.\F,0.,-0.000047,1.852417\F,0.,-0.000047,-1.852417\\Version=ES64L-G09
 RevD.01\State=1-A\HF=-239.7044573\RMSD=8.957e-09\RMSF=2.543e-06\ZeroPo
 int=0.0387035\Thermal=0.0427726\Dipole=0.0000116,0.0001639,0.\DipoleDe
 riv=0.2786208,-0.0001622,-0.0000119,-0.0000233,0.2788306,-0.000002,-0.
 0000145,-0.0000253,2.7967582,0.0614117,0.0000277,0.0000057,0.0000959,-
 0.0732071,0.0000027,0.0000068,0.0000037,-0.0729876,-0.0394966,-0.05834
 34,0.0000048,-0.0583023,0.0279202,0.0000011,-0.0000144,0.000006,-0.072
 9057,-0.0394101,0.0584555,0.0000055,0.0582119,0.0278521,-0.0000005,0.0
 000106,0.0000021,-0.0728845,-0.630561,0.000009,0.0000054,0.0000113,-0.
 6306978,0.0000553,-0.0000128,0.0000104,-1.7889917,-0.6305647,0.0000133
 ,-0.0000095,0.0000065,-0.630698,-0.0000566,0.0000242,0.0000032,-1.7889
 887\Polar=26.3935202,-0.0031071,26.3875694,-0.001071,-0.0002681,52.375
 5985\PG=C01 [X(C1H3F2)]\NImag=1\\0.70081606,0.00012390,0.70094130,0.00
 000054,0.00000021,-0.07854990,-0.05631227,-0.00002598,0.00000002,0.044
 20005,0.00000102,-0.37410532,-0.00000058,-0.00001552,0.38003473,-0.000
 00013,-0.00000003,-0.00560042,0.00000002,0.00000008,0.04612691,-0.2946
 7296,-0.13761597,0.00000008,0.00523071,0.00269896,0.00000003,0.2960733
 2,-0.13763421,-0.13578523,-0.00000012,-0.02249312,-0.00619606,0.000000
 03,0.14539004,0.12810688,0.,-0.00000005,-0.00566096,-0.00000011,0.0000
 0020,0.00346922,-0.00000014,0.00000003,0.04613969,-0.29450064,0.137518
 03,-0.00000050,0.00522192,-0.00269780,0.00000008,-0.01190609,0.0125916
 7,0.00000011,0.29589020,0.13752748,-0.13569527,0.00000036,0.02246375,-
 0.00618825,-0.00000005,-0.01259070,0.01093923,-0.00000014,-0.14533449,
 0.12808125,-0.00000017,-0.00000003,-0.00558263,0.00000005,0.00000004,0
 .00343865,0.00000009,0.00000004,0.00346383,0.00000006,-0.00000004,0.04
 609393,-0.02766511,0.00000002,0.00001537,0.00082980,0.00000663,0.00002
 681,0.00263756,0.00107282,0.01065799,0.00264727,-0.00103301,-0.0106842
 1,0.01613429,-0.00000910,-0.02767774,-0.00002139,0.00003545,0.00322744
 ,-0.01231253,0.00105884,0.00146759,0.00613750,-0.00103870,0.00143153,0
 .00618810,-0.00004691,0.01613298,0.00000888,-0.00001234,0.04769699,0.0
 0000605,-0.00260570,-0.02371719,0.00225419,0.00130318,-0.02370587,-0.0
 0225213,0.00130822,-0.02370692,-0.00001649,0.00000750,0.05578922,-0.02
 766508,0.,-0.00001551,0.00082978,0.00000672,-0.00002681,0.00263746,0.0
 0107280,-0.01065786,0.00264734,-0.00103304,0.01068419,0.00541620,0.000
 00042,-0.00000051,0.01613431,-0.00000908,-0.02767774,0.00002152,0.0000
 3541,0.00322746,0.01231251,0.00105882,0.00146759,-0.00613753,-0.001038
 70,0.00143151,-0.00618811,0.00000045,0.00541820,-0.00000086,-0.0000469
 0,0.01613298,-0.00000912,0.00001225,0.04769693,-0.00000603,0.00260597,
 -0.02371716,-0.00225426,-0.00130315,-0.02370591,0.00225238,-0.00130836
 ,-0.02370687,0.00000053,0.00000082,-0.03235623,0.00001649,-0.00000754,
 0.05578924\\0.00000294,0.00000349,0.,-0.00000636,0.00000154,0.,0.00000
 359,-0.00000075,0.,0.00000208,0.00000198,0.,-0.00000113,-0.00000313,-0
 .00000211,-0.00000113,-0.00000313,0.00000211\\\@


    UPON JULIA'S CLOTHES

 WHENAS IN SILKS MY JULIA GOES,
 THEN, THEN, METHINKS, HOW SWEETLY FLOWS
 THAT LIQUEFACTION OF HER CLOTHES.

 NEXT, WHEN I CAST MINE EYES, AND SEE
 THAT BRAVE VIBRATION, EACH WAY FREE,
 O, HOW THAT GLITTERING TAKETH ME!
     -- ROBERT HERRICK, 1648
 Job cpu time:       0 days  0 hours 18 minutes 42.1 seconds.
 File lengths (MBytes):  RWF=     26 Int=      0 D2E=      0 Chk=      4 Scr=      1
 Normal termination of Gaussian 09 at Sat Jul 25 21:00:29 2015.
