 Entering Gaussian System, Link 0=g09
 Initial command:
 /usr/local/gaussian/g09/l1.exe /u/rsp/rpaton/.Scratch/Gau-32121.inp -scrdir=/u/rsp/rpaton/.Scratch/
 Entering Link 1 = /usr/local/gaussian/g09/l1.exe PID=     32122.
  
 Copyright (c) 1988,1990,1992,1993,1995,1998,2003,2009, Gaussian, Inc.
                  All Rights Reserved.
  
 This is part of the Gaussian(R) 09 program.  It is based on
 the Gaussian(R) 03 system (copyright 2003, Gaussian, Inc.),
 the Gaussian(R) 98 system (copyright 1998, Gaussian, Inc.),
 the Gaussian(R) 94 system (copyright 1995, Gaussian, Inc.),
 the Gaussian 92(TM) system (copyright 1992, Gaussian, Inc.),
 the Gaussian 90(TM) system (copyright 1990, Gaussian, Inc.),
 the Gaussian 88(TM) system (copyright 1988, Gaussian, Inc.),
 the Gaussian 86(TM) system (copyright 1986, Carnegie Mellon
 University), and the Gaussian 82(TM) system (copyright 1983,
 Carnegie Mellon University). Gaussian is a federally registered
 trademark of Gaussian, Inc.
  
 This software contains proprietary and confidential information,
 including trade secrets, belonging to Gaussian, Inc.
  
 This software is provided under written license and may be
 used, copied, transmitted, or stored only in accord with that
 written license.
  
 The following legend is applicable only to US Government
 contracts under FAR:
  
                    RESTRICTED RIGHTS LEGEND
  
 Use, reproduction and disclosure by the US Government is
 subject to restrictions as set forth in subparagraphs (a)
 and (c) of the Commercial Computer Software - Restricted
 Rights clause in FAR 52.227-19.
  
 Gaussian, Inc.
 340 Quinnipiac St., Bldg. 40, Wallingford CT 06492
  
  
 ---------------------------------------------------------------
 Warning -- This program may not be used in any manner that
 competes with the business of Gaussian, Inc. or will provide
 assistance to any competitor of Gaussian, Inc.  The licensee
 of this program is prohibited from giving any competitor of
 Gaussian, Inc. access to this program.  By using this program,
 the user acknowledges that Gaussian, Inc. is engaged in the
 business of creating and licensing software in the field of
 computational chemistry and represents and warrants to the
 licensee that it is not a competitor of Gaussian, Inc. and that
 it will not use this program in any manner prohibited above.
 ---------------------------------------------------------------
  

 Cite this work as:
 Gaussian 09, Revision A.02,
 M. J. Frisch, G. W. Trucks, H. B. Schlegel, G. E. Scuseria, 
 M. A. Robb, J. R. Cheeseman, G. Scalmani, V. Barone, B. Mennucci, 
 G. A. Petersson, H. Nakatsuji, M. Caricato, X. Li, H. P. Hratchian, 
 A. F. Izmaylov, J. Bloino, G. Zheng, J. L. Sonnenberg, M. Hada, 
 M. Ehara, K. Toyota, R. Fukuda, J. Hasegawa, M. Ishida, T. Nakajima, 
 Y. Honda, O. Kitao, H. Nakai, T. Vreven, J. A. Montgomery, Jr., 
 J. E. Peralta, F. Ogliaro, M. Bearpark, J. J. Heyd, E. Brothers, 
 K. N. Kudin, V. N. Staroverov, R. Kobayashi, J. Normand, 
 K. Raghavachari, A. Rendell, J. C. Burant, S. S. Iyengar, J. Tomasi, 
 M. Cossi, N. Rega, J. M. Millam, M. Klene, J. E. Knox, J. B. Cross, 
 V. Bakken, C. Adamo, J. Jaramillo, R. Gomperts, R. E. Stratmann, 
 O. Yazyev, A. J. Austin, R. Cammi, C. Pomelli, J. W. Ochterski, 
 R. L. Martin, K. Morokuma, V. G. Zakrzewski, G. A. Voth, 
 P. Salvador, J. J. Dannenberg, S. Dapprich, A. D. Daniels, 
 O. Farkas, J. B. Foresman, J. V. Ortiz, J. Cioslowski, 
 and D. J. Fox, Gaussian, Inc., Wallingford CT, 2009.
 
 ******************************************
 Gaussian 09:  EM64L-G09RevA.02 11-Jun-2009
                12-Apr-2017 
 ******************************************
 %nprocshared=4
 Will use up to    4 processors via shared memory.
 --------------------
 #p freq rhf/6-31g(d)
 --------------------
 1/10=4,30=1,38=1/1,3;
 2/12=2,17=6,18=5,40=1/2;
 3/5=1,6=6,7=1,11=1,16=1,25=1,30=1,71=2,116=1/1,2,3;
 4//1;
 5/5=2,38=5,98=1/2;
 8/6=4,10=90,11=11/1;
 10/13=10,15=4/2;
 11/6=3,8=1,9=11,15=111,16=1/1,2,10;
 10/6=1/2;
 6/7=2,8=2,9=2,10=2,18=1,28=1/1;
 7/8=1,10=1,25=1/1,2,3,16;
 1/10=4,30=1/3;
 99//99;
 Leave Link    1 at Wed Apr 12 22:07:46 2017, MaxMem=          0 cpu:       0.7
 (Enter /usr/local/gaussian/g09/l101.exe)
 -------------------
 Title Card Required
 -------------------
 Symbolic Z-matrix:
 Charge = -1 Multiplicity = 1
 H                     0.        0.       -0.31323 
 Cl                    0.        0.        1.67275 
 Cl                    0.        0.       -1.65433 
 
 NAtoms=      3 NQM=      3 NQMF=      0 NMic=      0 NMicF=      0 NTot=      3.
                    Isotopes and Nuclear Properties:
 (Nuclear quadrupole moments (NQMom) in fm**2, nuclear magnetic moments (NMagM)
  in nuclear magnetons)

  Atom         1           2           3
 IAtWgt=           1          35          35
 AtmWgt=   1.0078250  34.9688527  34.9688527
 NucSpn=           1           3           3
 AtZEff=   0.0000000   0.0000000   0.0000000
 NQMom=    0.0000000  -8.1650000  -8.1650000
 NMagM=    2.7928460   0.8218740   0.8218740
 Leave Link  101 at Wed Apr 12 22:07:47 2017, MaxMem=   33554432 cpu:       2.1
 (Enter /usr/local/gaussian/g09/l103.exe)

 GradGradGradGradGradGradGradGradGradGradGradGradGradGradGradGradGradGrad
 Berny optimization.
 Initialization pass.
 Trust Radius=3.00D-01 FncErr=1.00D-07 GrdErr=1.00D-07
 Number of steps in this run=   2 maximum allowed number of steps=   2.
 GradGradGradGradGradGradGradGradGradGradGradGradGradGradGradGradGradGrad

 Leave Link  103 at Wed Apr 12 22:07:47 2017, MaxMem=   33554432 cpu:       0.2
 (Enter /usr/local/gaussian/g09/l202.exe)
                          Input orientation:                          
 ---------------------------------------------------------------------
 Center     Atomic      Atomic             Coordinates (Angstroms)
 Number     Number       Type             X           Y           Z
 ---------------------------------------------------------------------
      1          1           0        0.000000    0.000000   -0.313232
      2         17           0        0.000000    0.000000    1.672750
      3         17           0        0.000000    0.000000   -1.654325
 ---------------------------------------------------------------------
                    Distance matrix (angstroms):
                    1          2          3
     1  H    0.000000
     2  Cl   1.985982   0.000000
     3  Cl   1.341093   3.327075   0.000000
 Stoichiometry    Cl2H(1-)
 Framework group  C*V[C*(ClHCl)]
 Deg. of freedom     2
 Full point group                 C*V     NOp   4
 Largest Abelian subgroup         C2V     NOp   4
 Largest concise Abelian subgroup C1      NOp   1
                         Standard orientation:                         
 ---------------------------------------------------------------------
 Center     Atomic      Atomic             Coordinates (Angstroms)
 Number     Number       Type             X           Y           Z
 ---------------------------------------------------------------------
      1          1           0        0.000000    0.000000   -0.313232
      2         17           0        0.000000    0.000000    1.672750
      3         17           0        0.000000    0.000000   -1.654325
 ---------------------------------------------------------------------
 Rotational constants (GHZ):      0.0000000      2.6098101      2.6098101
 Leave Link  202 at Wed Apr 12 22:07:47 2017, MaxMem=   33554432 cpu:       0.0
 (Enter /usr/local/gaussian/g09/l301.exe)
 Standard basis: 6-31G(d) (6D, 7F)
 Ernie: Thresh=  0.10000D-02 Tol=  0.10000D-05 Strict=F.
 There are    22 symmetry adapted basis functions of A1  symmetry.
 There are     2 symmetry adapted basis functions of A2  symmetry.
 There are     8 symmetry adapted basis functions of B1  symmetry.
 There are     8 symmetry adapted basis functions of B2  symmetry.
 Integral buffers will be    131072 words long.
 Raffenetti 1 integral format.
 Two-electron integral symmetry is turned on.
    40 basis functions,   108 primitive gaussians,    40 cartesian basis functions
    18 alpha electrons       18 beta electrons
       nuclear repulsion energy        57.2036911094 Hartrees.
 IExCor=    0 DFT=F Ex=HF Corr=None ExCW=0 ScaHFX=  1.000000
 ScaDFX=  1.000000  1.000000  1.000000  1.000000 ScalE2=  1.000000  1.000000
 IRadAn=      0 IRanWt=     -1 IRanGd=            0 ICorTp=0
 NAtoms=    3 NActive=    3 NUniq=    3 SFac= 7.50D-01 NAtFMM=   80 NAOKFM=F Big=F
 Leave Link  301 at Wed Apr 12 22:07:48 2017, MaxMem=   33554432 cpu:       0.4
 (Enter /usr/local/gaussian/g09/l302.exe)
 NPDir=0 NMtPBC=     1 NCelOv=     1 NCel=       1 NClECP=     1 NCelD=      1
         NCelK=      1 NCelE2=     1 NClLst=     1 CellRange=     0.0.
 One-electron integrals computed using PRISM.
 NBasis=    40 RedAO= T  NBF=    22     2     8     8
 NBsUse=    40 1.00D-06 NBFU=    22     2     8     8
 Leave Link  302 at Wed Apr 12 22:07:49 2017, MaxMem=   33554432 cpu:       2.1
 (Enter /usr/local/gaussian/g09/l303.exe)
 DipDrv:  MaxL=1.
 Leave Link  303 at Wed Apr 12 22:07:50 2017, MaxMem=   33554432 cpu:       0.6
 (Enter /usr/local/gaussian/g09/l401.exe)
 Harris functional with IExCor=  205 diagonalized for initial guess.
 ExpMin= 1.43D-01 ExpMax= 2.52D+04 ExpMxC= 3.78D+03 IAcc=1 IRadAn=         1 AccDes= 0.00D+00
 HarFok:  IExCor=  205 AccDes= 0.00D+00 IRadAn=         1 IDoV= 1
 ScaDFX=  1.000000  1.000000  1.000000  1.000000
 FoFCou: FMM=F IPFlag=           0 FMFlag=      100000 FMFlg1=           0
         NFxFlg=           0 DoJE=T BraDBF=F KetDBF=T FulRan=T
         Omega=  0.000000  0.000000  1.000000  0.000000  0.000000 ICntrl=     500 IOpCl=  0
         NMat0=    1 NMatS0=    1 NMatT0=    0 NMatD0=    1 NMtDS0=    0 NMtDT0=    0
         I1Cent=           4 NGrid=           0.
 Petite list used in FoFCou.
 Harris En= -918.965315456192    
 Initial guess orbital symmetries:
       Occupied  (SG) (SG) (SG) (SG) (SG) (PI) (PI) (SG) (PI) (PI)
                 (SG) (SG) (SG) (PI) (PI) (SG) (PI) (PI)
       Virtual   (SG) (SG) (SG) (PI) (PI) (SG) (PI) (PI) (SG) (SG)
                 (PI) (PI) (DLTA) (DLTA) (PI) (PI) (DLTA) (DLTA)
                 (SG) (SG) (SG) (SG)
 The electronic state of the initial guess is 1-SG.
 Leave Link  401 at Wed Apr 12 22:07:51 2017, MaxMem=   33554432 cpu:       3.7
 (Enter /usr/local/gaussian/g09/l502.exe)
 Closed shell SCF:
 Requested convergence on RMS density matrix=1.00D-08 within 128 cycles.
 Requested convergence on MAX density matrix=1.00D-06.
 Requested convergence on             energy=1.00D-06.
 No special actions if energy rises.
 Using DIIS extrapolation, IDIIS=  1040.
 Integral symmetry usage will be decided dynamically.
 Keep R1 ints in memory in canonical form, NReq=1180144.
 IEnd=       23520 IEndB=       23520 NGot=    33554432 MDV=    33212555
 LenX=    33212555 LenY=    33210514
 Symmetry not used in FoFDir.
 MinBra= 0 MaxBra= 2 Meth= 1.
 IRaf=       0 NMat=   1 IRICut=       1 DoRegI=T DoRafI=F ISym2E= 0 JSym2E=0.

 Cycle   1  Pass 1  IDiag  1:
 E= -919.577966449053    
 DIIS: error= 1.14D-01 at cycle   1 NSaved=   1.
 NSaved= 1 IEnMin= 1 EnMin= -919.577966449053     IErMin= 1 ErrMin= 1.14D-01
 ErrMax= 1.14D-01 EMaxC= 1.00D-01 BMatC= 1.82D-01 BMatP= 1.82D-01
 IDIUse=3 WtCom= 0.00D+00 WtEn= 1.00D+00
 Coeff-Com:  0.100D+01
 Coeff-En:   0.100D+01
 Coeff:      0.100D+01
 Gap=     0.572 Goal=   None    Shift=    0.000
 GapD=    0.572 DampG=2.000 DampE=0.250 DampFc=0.5000 IDamp=-1.
 Damping current iteration by 5.00D-01
 RMSDP=7.58D-03 MaxDP=1.00D-01              OVMax= 2.78D-02

 Cycle   2  Pass 1  IDiag  1:
 E= -919.597896816474     Delta-E=       -0.019930367420 Rises=F Damp=T
 DIIS: error= 5.96D-02 at cycle   2 NSaved=   2.
 NSaved= 2 IEnMin= 2 EnMin= -919.597896816474     IErMin= 2 ErrMin= 5.96D-02
 ErrMax= 5.96D-02 EMaxC= 1.00D-01 BMatC= 4.81D-02 BMatP= 1.82D-01
 IDIUse=3 WtCom= 4.04D-01 WtEn= 5.96D-01
 Coeff-Com: -0.103D+01 0.203D+01
 Coeff-En:   0.000D+00 0.100D+01
 Coeff:     -0.417D+00 0.142D+01
 Gap=     0.591 Goal=   None    Shift=    0.000
 RMSDP=3.46D-03 MaxDP=4.00D-02 DE=-1.99D-02 OVMax= 9.49D-03

 Cycle   3  Pass 1  IDiag  1:
 E= -919.617444267421     Delta-E=       -0.019547450947 Rises=F Damp=F
 DIIS: error= 1.42D-03 at cycle   3 NSaved=   3.
 NSaved= 3 IEnMin= 3 EnMin= -919.617444267421     IErMin= 3 ErrMin= 1.42D-03
 ErrMax= 1.42D-03 EMaxC= 1.00D-01 BMatC= 4.61D-05 BMatP= 4.81D-02
 IDIUse=3 WtCom= 9.86D-01 WtEn= 1.42D-02
 Coeff-Com:  0.758D-01-0.165D+00 0.109D+01
 Coeff-En:   0.000D+00 0.000D+00 0.100D+01
 Coeff:      0.747D-01-0.163D+00 0.109D+01
 Gap=     0.594 Goal=   None    Shift=    0.000
 RMSDP=2.55D-04 MaxDP=2.78D-03 DE=-1.95D-02 OVMax= 2.91D-03

 Cycle   4  Pass 1  IDiag  1:
 E= -919.617495235174     Delta-E=       -0.000050967752 Rises=F Damp=F
 DIIS: error= 2.74D-04 at cycle   4 NSaved=   4.
 NSaved= 4 IEnMin= 4 EnMin= -919.617495235174     IErMin= 4 ErrMin= 2.74D-04
 ErrMax= 2.74D-04 EMaxC= 1.00D-01 BMatC= 1.60D-06 BMatP= 4.61D-05
 IDIUse=3 WtCom= 9.97D-01 WtEn= 2.74D-03
 Coeff-Com:  0.439D-03 0.127D-02-0.160D+00 0.116D+01
 Coeff-En:   0.000D+00 0.000D+00 0.000D+00 0.100D+01
 Coeff:      0.438D-03 0.127D-02-0.160D+00 0.116D+01
 Gap=     0.595 Goal=   None    Shift=    0.000
 RMSDP=7.55D-05 MaxDP=7.44D-04 DE=-5.10D-05 OVMax= 7.65D-04

 Cycle   5  Pass 1  IDiag  1:
 E= -919.617498947872     Delta-E=       -0.000003712699 Rises=F Damp=F
 DIIS: error= 6.44D-05 at cycle   5 NSaved=   5.
 NSaved= 5 IEnMin= 5 EnMin= -919.617498947872     IErMin= 5 ErrMin= 6.44D-05
 ErrMax= 6.44D-05 EMaxC= 1.00D-01 BMatC= 9.33D-08 BMatP= 1.60D-06
 IDIUse=1 WtCom= 1.00D+00 WtEn= 0.00D+00
 Coeff-Com: -0.325D-02 0.674D-02-0.367D-01-0.350D-01 0.107D+01
 Coeff:     -0.325D-02 0.674D-02-0.367D-01-0.350D-01 0.107D+01
 Gap=     0.595 Goal=   None    Shift=    0.000
 RMSDP=1.73D-05 MaxDP=3.10D-04 DE=-3.71D-06 OVMax= 1.66D-04

 Cycle   6  Pass 1  IDiag  1:
 E= -919.617499144725     Delta-E=       -0.000000196852 Rises=F Damp=F
 DIIS: error= 8.15D-06 at cycle   6 NSaved=   6.
 NSaved= 6 IEnMin= 6 EnMin= -919.617499144725     IErMin= 6 ErrMin= 8.15D-06
 ErrMax= 8.15D-06 EMaxC= 1.00D-01 BMatC= 4.15D-09 BMatP= 9.33D-08
 IDIUse=1 WtCom= 1.00D+00 WtEn= 0.00D+00
 Coeff-Com: -0.326D-03 0.609D-03 0.676D-02-0.656D-01 0.402D-01 0.102D+01
 Coeff:     -0.326D-03 0.609D-03 0.676D-02-0.656D-01 0.402D-01 0.102D+01
 Gap=     0.595 Goal=   None    Shift=    0.000
 RMSDP=4.21D-06 MaxDP=4.14D-05 DE=-1.97D-07 OVMax= 3.16D-05

 Cycle   7  Pass 1  IDiag  1:
 E= -919.617499152789     Delta-E=       -0.000000008064 Rises=F Damp=F
 DIIS: error= 1.34D-06 at cycle   7 NSaved=   7.
 NSaved= 7 IEnMin= 7 EnMin= -919.617499152789     IErMin= 7 ErrMin= 1.34D-06
 ErrMax= 1.34D-06 EMaxC= 1.00D-01 BMatC= 8.92D-11 BMatP= 4.15D-09
 IDIUse=1 WtCom= 1.00D+00 WtEn= 0.00D+00
 Coeff-Com:  0.123D-03-0.246D-03-0.679D-03 0.152D-01-0.324D-01-0.211D+00
 Coeff-Com:  0.123D+01
 Coeff:      0.123D-03-0.246D-03-0.679D-03 0.152D-01-0.324D-01-0.211D+00
 Coeff:      0.123D+01
 Gap=     0.595 Goal=   None    Shift=    0.000
 RMSDP=7.63D-07 MaxDP=1.13D-05 DE=-8.06D-09 OVMax= 4.64D-06

 Cycle   8  Pass 1  IDiag  1:
 E= -919.617499153002     Delta-E=       -0.000000000213 Rises=F Damp=F
 DIIS: error= 2.44D-07 at cycle   8 NSaved=   8.
 NSaved= 8 IEnMin= 8 EnMin= -919.617499153002     IErMin= 8 ErrMin= 2.44D-07
 ErrMax= 2.44D-07 EMaxC= 1.00D-01 BMatC= 2.88D-12 BMatP= 8.92D-11
 IDIUse=1 WtCom= 1.00D+00 WtEn= 0.00D+00
 Coeff-Com:  0.161D-05-0.150D-05-0.233D-03 0.190D-02-0.126D-02-0.290D-01
 Coeff-Com:  0.996D-02 0.102D+01
 Coeff:      0.161D-05-0.150D-05-0.233D-03 0.190D-02-0.126D-02-0.290D-01
 Coeff:      0.996D-02 0.102D+01
 Gap=     0.595 Goal=   None    Shift=    0.000
 RMSDP=1.06D-07 MaxDP=1.43D-06 DE=-2.13D-10 OVMax= 1.20D-06

 Cycle   9  Pass 1  IDiag  1:
 E= -919.617499153010     Delta-E=       -0.000000000008 Rises=F Damp=F
 DIIS: error= 6.94D-08 at cycle   9 NSaved=   9.
 NSaved= 9 IEnMin= 9 EnMin= -919.617499153010     IErMin= 9 ErrMin= 6.94D-08
 ErrMax= 6.94D-08 EMaxC= 1.00D-01 BMatC= 2.49D-13 BMatP= 2.88D-12
 IDIUse=1 WtCom= 1.00D+00 WtEn= 0.00D+00
 Coeff-Com: -0.964D-05 0.188D-04 0.903D-04-0.133D-02 0.221D-02 0.198D-01
 Coeff-Com: -0.811D-01-0.218D+00 0.128D+01
 Coeff:     -0.964D-05 0.188D-04 0.903D-04-0.133D-02 0.221D-02 0.198D-01
 Coeff:     -0.811D-01-0.218D+00 0.128D+01
 Gap=     0.595 Goal=   None    Shift=    0.000
 RMSDP=4.27D-08 MaxDP=4.77D-07 DE=-7.73D-12 OVMax= 5.64D-07

 Cycle  10  Pass 1  IDiag  1:
 E= -919.617499153012     Delta-E=       -0.000000000002 Rises=F Damp=F
 DIIS: error= 1.40D-08 at cycle  10 NSaved=  10.
 NSaved=10 IEnMin=10 EnMin= -919.617499153012     IErMin=10 ErrMin= 1.40D-08
 ErrMax= 1.40D-08 EMaxC= 1.00D-01 BMatC= 6.21D-15 BMatP= 2.49D-13
 IDIUse=1 WtCom= 1.00D+00 WtEn= 0.00D+00
 Coeff-Com:  0.475D-06-0.959D-06 0.245D-06 0.345D-04-0.143D-03-0.445D-03
 Coeff-Com:  0.545D-02-0.146D-01-0.110D+00 0.112D+01
 Coeff:      0.475D-06-0.959D-06 0.245D-06 0.345D-04-0.143D-03-0.445D-03
 Coeff:      0.545D-02-0.146D-01-0.110D+00 0.112D+01
 Gap=     0.595 Goal=   None    Shift=    0.000
 RMSDP=6.98D-09 MaxDP=8.55D-08 DE=-2.27D-12 OVMax= 9.49D-08

 SCF Done:  E(RHF) =  -919.617499153     A.U. after   10 cycles
             Convg  =    0.6976D-08             -V/T =  2.0004
 KE= 9.192239759285D+02 PE=-2.313495321266D+03 EE= 4.174501550752D+02
 Leave Link  502 at Wed Apr 12 22:07:53 2017, MaxMem=   33554432 cpu:       3.9
 (Enter /usr/local/gaussian/g09/l801.exe)
 Range of M.O.s used for correlation:     1    40
 NBasis=    40 NAE=    18 NBE=    18 NFC=     0 NFV=     0
 NROrb=     40 NOA=    18 NOB=    18 NVA=    22 NVB=    22
 Leave Link  801 at Wed Apr 12 22:07:54 2017, MaxMem=   33554432 cpu:       0.5
 (Enter /usr/local/gaussian/g09/l1002.exe)
 Minotr:  Closed shell wavefunction.
          Direct CPHF calculation.
          Differentiating once with respect to electric field.
                with respect to dipole field.
          Electric field/nuclear overlap derivatives assumed to be zero.
          Using symmetry in CPHF.
          Requested convergence is 1.0D-08 RMS, and 1.0D-07 maximum.
          Secondary convergence is 1.0D-12 RMS, and 1.0D-12 maximum.
          NewPWx=F KeepS1=T KeepF1=T KeepIn=T MapXYZ=F SortEE=F KeepMc=T.
          MDV=      33554404 using IRadAn=       2.
          Keep R1 ints in memory in canonical form, NReq=1157246.
 Symmetry not used in FoFDir.
 MinBra= 0 MaxBra= 2 Meth= 1.
 IRaf=       0 NMat=   1 IRICut=       1 DoRegI=T DoRafI=F ISym2E= 0 JSym2E=0.
          Solving linear equations simultaneously, MaxMat=       0.
          There are     3 degrees of freedom in the 1st order CPHF.  IDoFFX=0.
      3 vectors produced by pass  0 Test12= 1.32D-14 3.33D-08 XBig12= 1.00D+01 2.76D+00.
 AX will form     3 AO Fock derivatives at one time.
      3 vectors produced by pass  1 Test12= 1.32D-14 3.33D-08 XBig12= 3.99D-01 1.87D-01.
      3 vectors produced by pass  2 Test12= 1.32D-14 3.33D-08 XBig12= 1.23D-02 5.40D-02.
      3 vectors produced by pass  3 Test12= 1.32D-14 3.33D-08 XBig12= 7.73D-04 9.50D-03.
      3 vectors produced by pass  4 Test12= 1.32D-14 3.33D-08 XBig12= 1.37D-05 1.50D-03.
      3 vectors produced by pass  5 Test12= 1.32D-14 3.33D-08 XBig12= 2.24D-07 1.52D-04.
      3 vectors produced by pass  6 Test12= 1.32D-14 3.33D-08 XBig12= 1.08D-08 4.90D-05.
      3 vectors produced by pass  7 Test12= 1.32D-14 3.33D-08 XBig12= 1.18D-10 3.29D-06.
      3 vectors produced by pass  8 Test12= 1.32D-14 3.33D-08 XBig12= 1.53D-12 4.43D-07.
      1 vectors produced by pass  9 Test12= 1.32D-14 3.33D-08 XBig12= 5.65D-14 9.87D-08.
 Inverted reduced A of dimension    28 with in-core refinement.
 End of Minotr Frequency-dependent properties file   721 does not exist.
 End of Minotr Frequency-dependent properties file   722 does not exist.
 Leave Link 1002 at Wed Apr 12 22:07:56 2017, MaxMem=   33554432 cpu:       4.4
 (Enter /usr/local/gaussian/g09/l1101.exe)
 Using compressed storage, NAtomX=     3.
 Will process   4 centers per pass.
 Leave Link 1101 at Wed Apr 12 22:07:58 2017, MaxMem=   33554432 cpu:       1.8
 (Enter /usr/local/gaussian/g09/l1102.exe)
 Symmetrizing basis deriv contribution to polar:
 IMax=3 JMax=2 DiffMx= 0.00D+00
 Leave Link 1102 at Wed Apr 12 22:07:58 2017, MaxMem=   33554432 cpu:       0.7
 (Enter /usr/local/gaussian/g09/l1110.exe)
 Forming Gx(P) for the SCF density, NAtomX=     3.
 Integral derivatives from FoFDir/FoFCou, PRISM(SPDF).
 Do as many integral derivatives as possible in FoFDir.
 G2DrvN: MDV=      33554304.
 G2DrvN: will do     4 centers at a time, making    1 passes doing MaxLOS=2.
 Calling FoFCou, ICntrl=  3107 FMM=F I1Cent=   0 AccDes= 0.00D+00.
 FoFCou: FMM=F IPFlag=           0 FMFlag=      100000 FMFlg1=           0
         NFxFlg=           0 DoJE=F BraDBF=F KetDBF=F FulRan=T
         Omega=  0.000000  0.000000  1.000000  0.000000  0.000000 ICntrl=    3107 IOpCl=  0
         NMat0=    1 NMatS0=    1 NMatT0=    0 NMatD0=    4 NMtDS0=    3 NMtDT0=    0
         I1Cent=           0 NGrid=           0.
 Petite list used in FoFCou.
 FoFDir/FoFCou used for L=0 through L=2.
 End of G2Drv Frequency-dependent properties file   721 does not exist.
 End of G2Drv Frequency-dependent properties file   722 does not exist.
 Leave Link 1110 at Wed Apr 12 22:07:59 2017, MaxMem=   33554432 cpu:       2.2
 (Enter /usr/local/gaussian/g09/l1002.exe)
 Minotr:  Closed shell wavefunction.
          IDoAtm=111
          Direct CPHF calculation.
          Differentiating once with respect to electric field.
                with respect to dipole field.
          Differentiating once with respect to nuclear coordinates.
          Using symmetry in CPHF.
          Requested convergence is 1.0D-08 RMS, and 1.0D-07 maximum.
          Secondary convergence is 1.0D-12 RMS, and 1.0D-12 maximum.
          NewPWx=T KeepS1=F KeepF1=F KeepIn=T MapXYZ=F SortEE=F KeepMc=T.
          MDV=      33554398 using IRadAn=       2.
          Keep R1 ints in memory in canonical form, NReq=1157309.
 Symmetry not used in FoFDir.
 MinBra= 0 MaxBra= 2 Meth= 1.
 IRaf=       0 NMat=   1 IRICut=       1 DoRegI=T DoRafI=F ISym2E= 0 JSym2E=0.
          Solving linear equations simultaneously, MaxMat=       0.
          There are    12 degrees of freedom in the 1st order CPHF.  IDoFFX=5.
 Will reuse    3 saved solutions.
      6 vectors produced by pass  0 Test12= 3.30D-15 8.33D-09 XBig12= 2.71D-02 7.55D-02.
 AX will form     6 AO Fock derivatives at one time.
      6 vectors produced by pass  1 Test12= 3.30D-15 8.33D-09 XBig12= 1.26D-03 1.71D-02.
      6 vectors produced by pass  2 Test12= 3.30D-15 8.33D-09 XBig12= 4.44D-05 2.15D-03.
      6 vectors produced by pass  3 Test12= 3.30D-15 8.33D-09 XBig12= 2.05D-06 4.55D-04.
      6 vectors produced by pass  4 Test12= 3.30D-15 8.33D-09 XBig12= 6.54D-08 1.05D-04.
      6 vectors produced by pass  5 Test12= 3.30D-15 8.33D-09 XBig12= 2.76D-10 5.83D-06.
      6 vectors produced by pass  6 Test12= 3.30D-15 8.33D-09 XBig12= 2.60D-12 6.19D-07.
      1 vectors produced by pass  7 Test12= 3.30D-15 8.33D-09 XBig12= 2.02D-14 4.62D-08.
 Inverted reduced A of dimension    43 with in-core refinement.
 FullF1:  Do perturbations    1 to     3.
 Isotropic polarizability for W=    0.000000       21.16 Bohr**3.
 FullF1:  Do perturbations    1 to     6.
 End of Minotr Frequency-dependent properties file   721 does not exist.
 End of Minotr Frequency-dependent properties file   722 does not exist.
 Leave Link 1002 at Wed Apr 12 22:08:00 2017, MaxMem=   33554432 cpu:       2.4
 (Enter /usr/local/gaussian/g09/l601.exe)
 Copying SCF densities to generalized density rwf, IOpCl= 0 IROHF=0.

 **********************************************************************

            Population analysis using the SCF density.

 **********************************************************************

 Orbital symmetries:
       Occupied  (SG) (SG) (SG) (SG) (SG) (PI) (PI) (SG) (PI) (PI)
                 (SG) (SG) (SG) (PI) (PI) (SG) (PI) (PI)
       Virtual   (SG) (SG) (SG) (PI) (PI) (SG) (PI) (PI) (SG) (SG)
                 (PI) (PI) (DLTA) (DLTA) (PI) (PI) (DLTA) (DLTA)
                 (SG) (SG) (SG) (SG)
 The electronic state is 1-SG.
 Alpha  occ. eigenvalues -- -104.63432-104.52299 -10.37013 -10.25338  -7.83962
 Alpha  occ. eigenvalues --   -7.83660  -7.83660  -7.72170  -7.72091  -7.72091
 Alpha  occ. eigenvalues --   -0.91668  -0.76780  -0.42791  -0.28762  -0.28762
 Alpha  occ. eigenvalues --   -0.18038  -0.18017  -0.18017
 Alpha virt. eigenvalues --    0.41472   0.71413   0.74523   0.78934   0.78934
 Alpha virt. eigenvalues --    0.82796   0.89947   0.89947   1.01821   1.26752
 Alpha virt. eigenvalues --    1.31141   1.31141   1.33231   1.33231   1.44011
 Alpha virt. eigenvalues --    1.44011   1.44564   1.44564   1.64997   1.68472
 Alpha virt. eigenvalues --    4.85059   4.96206
          Condensed to atoms (all electrons):
              1          2          3
     1  H    0.438753   0.092293   0.187427
     2  Cl   0.092293  17.843013  -0.088096
     3  Cl   0.187427  -0.088096  17.334987
 Mulliken atomic charges:
              1
     1  H    0.281528
     2  Cl  -0.847210
     3  Cl  -0.434318
 Sum of Mulliken atomic charges =  -1.00000
 Mulliken charges with hydrogens summed into heavy atoms:
              1
     2  Cl  -0.847210
     3  Cl  -0.152790
 Sum of Mulliken charges with hydrogens summed into heavy atoms =  -1.00000
 APT atomic charges:
              1
     1  H    0.781845
     2  Cl  -1.045433
     3  Cl  -0.736412
 Sum of APT charges=  -1.00000
 APT Atomic charges with hydrogens summed into heavy atoms:
              1
     1  H    0.000000
     2  Cl  -1.045433
     3  Cl   0.045433
 Sum of APT charges=  -1.00000
 Electronic spatial extent (au):  <R**2>=            415.3221
 Charge=             -1.0000 electrons
 Dipole moment (field-independent basis, Debye):
    X=              0.0000    Y=              0.0000    Z=             -3.7625  Tot=              3.7625
 Quadrupole moment (field-independent basis, Debye-Ang):
   XX=            -29.9605   YY=            -29.9605   ZZ=            -46.2820
   XY=              0.0000   XZ=              0.0000   YZ=              0.0000
 Traceless Quadrupole moment (field-independent basis, Debye-Ang):
   XX=              5.4405   YY=              5.4405   ZZ=            -10.8810
   XY=              0.0000   XZ=              0.0000   YZ=              0.0000
 Octapole moment (field-independent basis, Debye-Ang**2):
  XXX=              0.0000  YYY=              0.0000  ZZZ=            -20.2971  XYY=              0.0000
  XXY=              0.0000  XXZ=             -2.2005  XZZ=              0.0000  YZZ=              0.0000
  YYZ=             -2.2005  XYZ=              0.0000
 Hexadecapole moment (field-independent basis, Debye-Ang**3):
 XXXX=            -35.7533 YYYY=            -35.7533 ZZZZ=           -544.5514 XXXY=              0.0000
 XXXZ=              0.0000 YYYX=              0.0000 YYYZ=              0.0000 ZZZX=              0.0000
 ZZZY=              0.0000 XXYY=            -11.9178 XXZZ=            -93.4339 YYZZ=            -93.4339
 XXYZ=              0.0000 YYXZ=              0.0000 ZZXY=              0.0000
 N-N= 5.720369110937D+01 E-N=-2.313495321398D+03  KE= 9.192239759285D+02
 Symmetry A1   KE= 7.372638384077D+02
 Symmetry A2   KE=-1.289850212460D-51
 Symmetry B1   KE= 9.098006876038D+01
 Symmetry B2   KE= 9.098006876038D+01
  Exact polarizability:  12.456   0.000  12.456   0.000   0.000  38.556
 Approx polarizability:  11.140   0.000  11.140   0.000   0.000  28.553
 No NMR shielding tensors so no spin-rotation constants.
 Leave Link  601 at Wed Apr 12 22:08:00 2017, MaxMem=   33554432 cpu:       1.1
 (Enter /usr/local/gaussian/g09/l701.exe)
 Compute integral second derivatives.
 ... and contract with generalized density number  0.
 Leave Link  701 at Wed Apr 12 22:08:01 2017, MaxMem=   33554432 cpu:       1.6
 (Enter /usr/local/gaussian/g09/l702.exe)
 L702 exits ... SP integral derivatives will be done elsewhere.
 Leave Link  702 at Wed Apr 12 22:08:01 2017, MaxMem=   33554432 cpu:       0.6
 (Enter /usr/local/gaussian/g09/l703.exe)
 Compute integral second derivatives, UseDBF=F ICtDFT=           0.
 Integral derivatives from FoFDir, PRISM(SPDF).
 Calling FoFJK, ICntrl=    100127 FMM=F ISym2X=1 I1Cent= 0 IOpClX= 0 NMat=1 NMatS=1 NMatT=0.
 FoFCou: FMM=F IPFlag=           0 FMFlag=      100000 FMFlg1=         800
         NFxFlg=           0 DoJE=F BraDBF=F KetDBF=F FulRan=T
         Omega=  0.000000  0.000000  1.000000  0.000000  0.000000 ICntrl=  100127 IOpCl=  0
         NMat0=    1 NMatS0=    1 NMatT0=    0 NMatD0=    1 NMtDS0=    0 NMtDT0=    0
         I1Cent=           0 NGrid=           0.
 Petite list used in FoFCou.
 Leave Link  703 at Wed Apr 12 22:08:02 2017, MaxMem=   33554432 cpu:       3.9
 (Enter /usr/local/gaussian/g09/l716.exe)
 Dipole        = 0.00000000D+00 0.00000000D+00-1.48028786D+00
 Polarizability= 1.24558556D+01 0.00000000D+00 1.24558556D+01
                 0.00000000D+00 0.00000000D+00 3.85557848D+01
 HyperPolar    = 0.00000000D+00 0.00000000D+00 0.00000000D+00
                 0.00000000D+00-7.23251925D-01 0.00000000D+00
                -7.23251925D-01 0.00000000D+00 0.00000000D+00
                -3.67538944D+02
 Full mass-weighted force constant matrix:
 Low frequencies ---   -7.8184   -7.8184   -0.0069   -0.0059   -0.0059  176.6046
 Low frequencies ---  717.7694  717.7694 2088.7335
 Diagonal vibrational polarizability:
        3.6046723       3.6046723      93.1166409
 Diagonal vibrational hyperpolarizability:
        0.0000000       0.0000000     775.7660670
 Harmonic frequencies (cm**-1), IR intensities (KM/Mole), Raman scattering
 activities (A**4/AMU), depolarization ratios for plane and unpolarized
 incident light, reduced masses (AMU), force constants (mDyne/A),
 and normal coordinates:
                     1                      2                      3
                    SG                     PI                     PI
 Frequencies --   176.6046               717.7694               717.7694
 Red. masses --    19.7763                 1.0225                 1.0225
 Frc consts  --     0.3634                 0.3104                 0.3104
 IR Inten    --    84.3745                69.0085                69.0085
 Raman Activ --     2.6147                 0.0256                 0.0256
 Depolar (P) --     0.2897                 0.7500                 0.7500
 Depolar (U) --     0.4493                 0.8571                 0.8571
  Atom  AN      X      Y      Z        X      Y      Z        X      Y      Z
     1   1     0.00   0.00  -0.67     1.00   0.00   0.00     0.00   1.00   0.00
     2  17     0.00   0.00   0.54    -0.01   0.00   0.00     0.00  -0.01   0.00
     3  17     0.00   0.00  -0.52    -0.02   0.00   0.00     0.00  -0.02   0.00
                     4
                    SG
 Frequencies --  2088.7335
 Red. masses --     1.0454
 Frc consts  --     2.6872
 IR Inten    --  3293.4672
 Raman Activ --  1037.8549
 Depolar (P) --     0.3472
 Depolar (U) --     0.5155
  Atom  AN      X      Y      Z
     1   1     0.00   0.00   1.00
     2  17     0.00   0.00   0.00
     3  17     0.00   0.00  -0.03

 -------------------
 - Thermochemistry -
 -------------------
 Temperature   298.150 Kelvin.  Pressure   1.00000 Atm.
 Atom     1 has atomic number  1 and mass   1.00783
 Atom     2 has atomic number 17 and mass  34.96885
 Atom     3 has atomic number 17 and mass  34.96885
 Molecular mass:    70.94553 amu.
 Principal axes and moments of inertia in atomic units:
                           1         2         3
     Eigenvalues --     0.00000 691.52205 691.52205
           X            0.00000   0.00000   1.00000
           Y            0.00000   1.00000   0.00000
           Z            1.00000   0.00000   0.00000
 This molecule is a prolate symmetric top.
 Rotational symmetry number  1.
 Warning -- assumption of classical behavior for rotation
           may cause significant error
 Rotational temperature (Kelvin)      0.12525
 Rotational constant (GHZ):           2.609810
 Zero-point vibrational energy      22136.2 (Joules/Mol)
                                    5.29067 (Kcal/Mol)
 Warning -- explicit consideration of   1 degrees of freedom as
           vibrations may cause significant error
 Vibrational temperatures:    254.09  1032.71  1032.71  3005.22
          (Kelvin)
 
 Zero-point correction=                           0.008431 (Hartree/Particle)
 Thermal correction to Energy=                    0.011602
 Thermal correction to Enthalpy=                  0.012546
 Thermal correction to Gibbs Free Energy=        -0.015520
 Sum of electronic and zero-point Energies=           -919.609068
 Sum of electronic and thermal Energies=              -919.605897
 Sum of electronic and thermal Enthalpies=            -919.604953
 Sum of electronic and thermal Free Energies=         -919.633019
 
                     E (Thermal)             CV                S
                      KCal/Mol        Cal/Mol-Kelvin    Cal/Mol-Kelvin
 Total                    7.280              8.439             59.069
 Electronic               0.000              0.000              0.000
 Translational            0.889              2.981             38.695
 Rotational               0.592              1.987             17.438
 Vibrational              5.799              3.471              2.936
 Vibration     1          0.628              1.871              2.364
                       Q            Log10(Q)             Ln(Q)
 Total Bot       0.137563D+08          7.138501         16.437007
 Total V=0       0.103892D+12         11.016584         25.366622
 Vib (Bot)       0.246039D-03         -3.608995         -8.310019
 Vib (Bot)    1  0.113861D+01          0.056375          0.129809
 Vib (V=0)       0.185818D+01          0.269088          0.619597
 Vib (V=0)    1  0.174356D+01          0.241436          0.555928
 Electronic      0.100000D+01          0.000000          0.000000
 Translational   0.234878D+08          7.370843         16.971993
 Rotational      0.238042D+04          3.376654          7.775032
 
                                                         Title Card Required
                                                             IR Spectrum
 
     2                                                                                                                               
     0                                                                                   7                                1          
     8                                                                                   1                                7          
     9                                                                                   8                                7          
 
     X                                                                                   X                                X          
     X                                                                                                                               
     X                                                                                                                               
     X                                                                                                                               
     X                                                                                                                               
     X                                                                                                                               
     X                                                                                                                               
     X                                                                                                                               
     X                                                                                                                               
     X                                                                                                                               
     X                                                                                                                               
     X                                                                                                                               
     X                                                                                                                               
     X                                                                                                                               
     X                                                                                                                               
     X                                                                                                                               
     X                                                                                                                               
     X                                                                                                                               
     X                                                                                                                               
     X                                                                                                                               
 
 
                                                         Title Card Required
                                                            Raman Spectrum
 
     2                                                                                                                               
     0                                                                                   7                                1          
     8                                                                                   1                                7          
     9                                                                                   8                                7          
 
     X                                                                                   X                                X          
     X                                                                                                                               
     X                                                                                                                               
     X                                                                                                                               
     X                                                                                                                               
     X                                                                                                                               
     X                                                                                                                               
     X                                                                                                                               
     X                                                                                                                               
     X                                                                                                                               
     X                                                                                                                               
     X                                                                                                                               
     X                                                                                                                               
     X                                                                                                                               
     X                                                                                                                               
     X                                                                                                                               
     X                                                                                                                               
     X                                                                                                                               
     X                                                                                                                               
     X                                                                                                                               
 
 ***** Axes restored to original set *****
 -------------------------------------------------------------------
 Center     Atomic                   Forces (Hartrees/Bohr)
 Number     Number              X              Y              Z
 -------------------------------------------------------------------
      1        1           0.000000000    0.000000000    0.000103082
      2       17           0.000000000    0.000000000    0.000212794
      3       17           0.000000000    0.000000000   -0.000315876
 -------------------------------------------------------------------
 Cartesian Forces:  Max     0.000315876 RMS     0.000131523
 Z-matrix is all fixed cartesians, so copy forces.
 Force constants in Cartesian coordinates: 
                1             2             3             4             5 
      1  0.193600D-01
      2  0.000000D+00  0.193600D-01
      3  0.000000D+00  0.000000D+00  0.160266D+00
      4 -0.782011D-02  0.000000D+00  0.000000D+00  0.311832D-02
      5  0.000000D+00 -0.782011D-02  0.000000D+00  0.000000D+00  0.311832D-02
      6  0.000000D+00  0.000000D+00  0.225558D-01  0.000000D+00  0.000000D+00
      7 -0.115399D-01  0.000000D+00  0.000000D+00  0.470179D-02  0.000000D+00
      8  0.000000D+00 -0.115399D-01  0.000000D+00  0.000000D+00  0.470179D-02
      9  0.000000D+00  0.000000D+00 -0.182822D+00  0.000000D+00  0.000000D+00
                6             7             8             9 
      6  0.242965D-01
      7  0.000000D+00  0.683809D-02
      8  0.000000D+00  0.000000D+00  0.683809D-02
      9 -0.468523D-01  0.000000D+00  0.000000D+00  0.229674D+00
 Leave Link  716 at Wed Apr 12 22:08:03 2017, MaxMem=   33554432 cpu:       0.6
 (Enter /usr/local/gaussian/g09/l103.exe)

 GradGradGradGradGradGradGradGradGradGradGradGradGradGradGradGradGradGrad
 Berny optimization.
 Search for a local minimum.
 Step number   1 out of a maximum of    2
 All quantities printed in internal units (Hartrees-Bohrs-Radians)
 Second derivative matrix not updated -- analytic derivatives used.
 The second derivative matrix:
                          X1        Y1        Z1        X2        Y2
           X1           0.01936
           Y1           0.00000   0.01936
           Z1           0.00000   0.00000   0.16027
           X2          -0.00782   0.00000   0.00000   0.00312
           Y2           0.00000  -0.00782   0.00000   0.00000   0.00312
           Z2           0.00000   0.00000   0.02256   0.00000   0.00000
           X3          -0.01154   0.00000   0.00000   0.00470   0.00000
           Y3           0.00000  -0.01154   0.00000   0.00000   0.00470
           Z3           0.00000   0.00000  -0.18282   0.00000   0.00000
                          Z2        X3        Y3        Z3
           Z2           0.02430
           X3           0.00000   0.00684
           Y3           0.00000   0.00000   0.00684
           Z3          -0.04685   0.00000   0.00000   0.22967
     Eigenvalues ---    0.02381   0.02381   0.02392   0.34565
 Angle between quadratic step and forces=  53.57 degrees.
 ClnCor:  largest displacement from symmetrization is 0.00D+00 for atom     0.
 Linear search not attempted -- first point.
 ClnCor:  largest displacement from symmetrization is 0.00D+00 for atom     0.
 TrRot=  0.000000  0.000000  0.001210  0.000000  0.000000  0.000000
 Variable       Old X    -DE/DX   Delta X   Delta X   Delta X     New X
                                 (Linear)    (Quad)   (Total)
    X1        0.00000   0.00000   0.00000   0.00000   0.00000   0.00000
    Y1        0.00000   0.00000   0.00000   0.00000   0.00000   0.00000
    Z1       -0.59192   0.00010   0.00000  -0.00479  -0.00358  -0.59550
    X2        0.00000   0.00000   0.00000   0.00000   0.00000   0.00000
    Y2        0.00000   0.00000   0.00000   0.00000   0.00000   0.00000
    Z2        3.16104   0.00021   0.00000   0.00527   0.00648   3.16752
    X3        0.00000   0.00000   0.00000   0.00000   0.00000   0.00000
    Y3        0.00000   0.00000   0.00000   0.00000   0.00000   0.00000
    Z3       -3.12622  -0.00032   0.00000  -0.00411  -0.00290  -3.12912
         Item               Value     Threshold  Converged?
 Maximum Force            0.000316     0.000450     YES
 RMS     Force            0.000132     0.000300     YES
 Maximum Displacement     0.006484     0.001800     NO 
 RMS     Displacement     0.002652     0.001200     NO 
 Predicted change in Energy=-9.638699D-07
 GradGradGradGradGradGradGradGradGradGradGradGradGradGradGradGradGradGrad

 Leave Link  103 at Wed Apr 12 22:08:03 2017, MaxMem=   33554432 cpu:       0.2
 (Enter /usr/local/gaussian/g09/l9999.exe)
 1\1\GINC-BRIGHTEYES\Freq\RHF\6-31G(d)\Cl2H1(1-)\RPATON\12-Apr-2017\0\\
 #p freq rhf/6-31g(d)\\Title Card Required\\-1,1\H,0.,0.,-0.313232\Cl,0
 .,0.,1.67275\Cl,0.,0.,-1.654325\\Version=EM64L-G09RevA.02\State=1-SG\H
 F=-919.6174992\RMSD=6.976e-09\RMSF=1.315e-04\ZeroPoint=0.0084312\Therm
 al=0.0116018\Dipole=0.,0.,-1.4802879\DipoleDeriv=0.2522044,0.,0.,0.,0.
 2522044,0.,0.,0.,1.8411271,-0.8343332,0.,0.,0.,-0.8343332,0.,0.,0.,-1.
 467634,-0.4178713,0.,0.,0.,-0.4178713,0.,0.,0.,-1.3734932\Polar=12.455
 8556,0.,12.4558556,0.,0.,38.5557848\PolarDeriv=0.,0.,0.,-0.1470022,0.,
 0.,0.,0.,0.,0.,-0.1470022,0.,-0.3959034,0.,-0.3959034,0.,0.,33.0632115
 ,0.,0.,0.,4.2104946,0.,0.,0.,0.,0.,0.,4.2104946,0.,-0.3414853,0.,-0.34
 14853,0.,0.,-2.1592689,0.,0.,0.,-4.0634924,0.,0.,0.,0.,0.,0.,-4.063492
 4,0.,0.7373886,0.,0.7373886,0.,0.,-30.9039426\HyperPolar=0.,0.,0.,0.,-
 0.7232519,0.,-0.7232519,0.,0.,-367.5389442\PG=C*V [C*(Cl1H1Cl1)]\NImag
 =0\\0.01935999,0.,0.01935999,0.,0.,0.16026586,-0.00782011,0.,0.,0.0031
 1832,0.,-0.00782011,0.,0.,0.00311832,0.,0.,0.02255584,0.,0.,0.02429651
 ,-0.01153988,0.,0.,0.00470179,0.,0.,0.00683809,0.,-0.01153988,0.,0.,0.
 00470179,0.,0.,0.00683809,0.,0.,-0.18282171,0.,0.,-0.04685235,0.,0.,0.
 22967405\\0.,0.,-0.00010308,0.,0.,-0.00021279,0.,0.,0.00031588\\\@


 FIREWORKS ENDED
 AND SPECTATORS GONE AWAY....
 AH, HOW VAST AND DARK
                     SHIKI
 Job cpu time:  0 days  0 hours  0 minutes 39.2 seconds.
 File lengths (MBytes):  RWF=      5 Int=      0 D2E=      0 Chk=      1 Scr=      1
 Normal termination of Gaussian 09 at Wed Apr 12 22:08:03 2017.
