 Entering Gaussian System, Link 0=g09
 Initial command:
 /usr/local/gaussian/g09/l1.exe /u/rsp/rpaton/.Scratch/Gau-32047.inp -scrdir=/u/rsp/rpaton/.Scratch/
 Entering Link 1 = /usr/local/gaussian/g09/l1.exe PID=     32048.
  
 Copyright (c) 1988,1990,1992,1993,1995,1998,2003,2009, Gaussian, Inc.
                  All Rights Reserved.
  
 This is part of the Gaussian(R) 09 program.  It is based on
 the Gaussian(R) 03 system (copyright 2003, Gaussian, Inc.),
 the Gaussian(R) 98 system (copyright 1998, Gaussian, Inc.),
 the Gaussian(R) 94 system (copyright 1995, Gaussian, Inc.),
 the Gaussian 92(TM) system (copyright 1992, Gaussian, Inc.),
 the Gaussian 90(TM) system (copyright 1990, Gaussian, Inc.),
 the Gaussian 88(TM) system (copyright 1988, Gaussian, Inc.),
 the Gaussian 86(TM) system (copyright 1986, Carnegie Mellon
 University), and the Gaussian 82(TM) system (copyright 1983,
 Carnegie Mellon University). Gaussian is a federally registered
 trademark of Gaussian, Inc.
  
 This software contains proprietary and confidential information,
 including trade secrets, belonging to Gaussian, Inc.
  
 This software is provided under written license and may be
 used, copied, transmitted, or stored only in accord with that
 written license.
  
 The following legend is applicable only to US Government
 contracts under FAR:
  
                    RESTRICTED RIGHTS LEGEND
  
 Use, reproduction and disclosure by the US Government is
 subject to restrictions as set forth in subparagraphs (a)
 and (c) of the Commercial Computer Software - Restricted
 Rights clause in FAR 52.227-19.
  
 Gaussian, Inc.
 340 Quinnipiac St., Bldg. 40, Wallingford CT 06492
  
  
 ---------------------------------------------------------------
 Warning -- This program may not be used in any manner that
 competes with the business of Gaussian, Inc. or will provide
 assistance to any competitor of Gaussian, Inc.  The licensee
 of this program is prohibited from giving any competitor of
 Gaussian, Inc. access to this program.  By using this program,
 the user acknowledges that Gaussian, Inc. is engaged in the
 business of creating and licensing software in the field of
 computational chemistry and represents and warrants to the
 licensee that it is not a competitor of Gaussian, Inc. and that
 it will not use this program in any manner prohibited above.
 ---------------------------------------------------------------
  

 Cite this work as:
 Gaussian 09, Revision A.02,
 M. J. Frisch, G. W. Trucks, H. B. Schlegel, G. E. Scuseria, 
 M. A. Robb, J. R. Cheeseman, G. Scalmani, V. Barone, B. Mennucci, 
 G. A. Petersson, H. Nakatsuji, M. Caricato, X. Li, H. P. Hratchian, 
 A. F. Izmaylov, J. Bloino, G. Zheng, J. L. Sonnenberg, M. Hada, 
 M. Ehara, K. Toyota, R. Fukuda, J. Hasegawa, M. Ishida, T. Nakajima, 
 Y. Honda, O. Kitao, H. Nakai, T. Vreven, J. A. Montgomery, Jr., 
 J. E. Peralta, F. Ogliaro, M. Bearpark, J. J. Heyd, E. Brothers, 
 K. N. Kudin, V. N. Staroverov, R. Kobayashi, J. Normand, 
 K. Raghavachari, A. Rendell, J. C. Burant, S. S. Iyengar, J. Tomasi, 
 M. Cossi, N. Rega, J. M. Millam, M. Klene, J. E. Knox, J. B. Cross, 
 V. Bakken, C. Adamo, J. Jaramillo, R. Gomperts, R. E. Stratmann, 
 O. Yazyev, A. J. Austin, R. Cammi, C. Pomelli, J. W. Ochterski, 
 R. L. Martin, K. Morokuma, V. G. Zakrzewski, G. A. Voth, 
 P. Salvador, J. J. Dannenberg, S. Dapprich, A. D. Daniels, 
 O. Farkas, J. B. Foresman, J. V. Ortiz, J. Cioslowski, 
 and D. J. Fox, Gaussian, Inc., Wallingford CT, 2009.
 
 ******************************************
 Gaussian 09:  EM64L-G09RevA.02 11-Jun-2009
                12-Apr-2017 
 ******************************************
 %nprocshared=4
 Will use up to    4 processors via shared memory.
 --------------------
 #p freq rhf/6-31g(d)
 --------------------
 1/10=4,30=1,38=1/1,3;
 2/12=2,17=6,18=5,40=1/2;
 3/5=1,6=6,7=1,11=1,16=1,25=1,30=1,71=2,116=1/1,2,3;
 4//1;
 5/5=2,38=5,98=1/2;
 8/6=4,10=90,11=11/1;
 10/13=10,15=4/2;
 11/6=3,8=1,9=11,15=111,16=1/1,2,10;
 10/6=1/2;
 6/7=2,8=2,9=2,10=2,18=1,28=1/1;
 7/8=1,10=1,25=1/1,2,3,16;
 1/10=4,30=1/3;
 99//99;
 Leave Link    1 at Wed Apr 12 22:07:39 2017, MaxMem=          0 cpu:       0.6
 (Enter /usr/local/gaussian/g09/l101.exe)
 -------------------
 Title Card Required
 -------------------
 Symbolic Z-matrix:
 Charge = -1 Multiplicity = 1
 H                     0.        0.        0. 
 Cl                    0.        0.        1.57 
 Cl                    0.        0.       -1.57 
 
 NAtoms=      3 NQM=      3 NQMF=      0 NMic=      0 NMicF=      0 NTot=      3.
                    Isotopes and Nuclear Properties:
 (Nuclear quadrupole moments (NQMom) in fm**2, nuclear magnetic moments (NMagM)
  in nuclear magnetons)

  Atom         1           2           3
 IAtWgt=           1          35          35
 AtmWgt=   1.0078250  34.9688527  34.9688527
 NucSpn=           1           3           3
 AtZEff=   0.0000000   0.0000000   0.0000000
 NQMom=    0.0000000  -8.1650000  -8.1650000
 NMagM=    2.7928460   0.8218740   0.8218740
 Leave Link  101 at Wed Apr 12 22:07:40 2017, MaxMem=   33554432 cpu:       2.2
 (Enter /usr/local/gaussian/g09/l103.exe)

 GradGradGradGradGradGradGradGradGradGradGradGradGradGradGradGradGradGrad
 Berny optimization.
 Initialization pass.
 Trust Radius=3.00D-01 FncErr=1.00D-07 GrdErr=1.00D-07
 Number of steps in this run=   2 maximum allowed number of steps=   2.
 GradGradGradGradGradGradGradGradGradGradGradGradGradGradGradGradGradGrad

 Leave Link  103 at Wed Apr 12 22:07:40 2017, MaxMem=   33554432 cpu:       0.3
 (Enter /usr/local/gaussian/g09/l202.exe)
                          Input orientation:                          
 ---------------------------------------------------------------------
 Center     Atomic      Atomic             Coordinates (Angstroms)
 Number     Number       Type             X           Y           Z
 ---------------------------------------------------------------------
      1          1           0        0.000000    0.000000    0.000000
      2         17           0        0.000000    0.000000    1.570000
      3         17           0        0.000000    0.000000   -1.570000
 ---------------------------------------------------------------------
                    Distance matrix (angstroms):
                    1          2          3
     1  H    0.000000
     2  Cl   1.570000   0.000000
     3  Cl   1.570000   3.140000   0.000000
 Stoichiometry    Cl2H(1-)
 Framework group  D*H[O(H),C*(Cl.Cl)]
 Deg. of freedom     1
 Full point group                 D*H     NOp   8
 Largest Abelian subgroup         D2H     NOp   8
 Largest concise Abelian subgroup C2      NOp   2
                         Standard orientation:                         
 ---------------------------------------------------------------------
 Center     Atomic      Atomic             Coordinates (Angstroms)
 Number     Number       Type             X           Y           Z
 ---------------------------------------------------------------------
      1          1           0        0.000000    0.000000    0.000000
      2         17           0        0.000000    0.000000    1.570000
      3         17           0        0.000000    0.000000   -1.570000
 ---------------------------------------------------------------------
 Rotational constants (GHZ):      0.0000000      2.9316121      2.9316121
 Leave Link  202 at Wed Apr 12 22:07:40 2017, MaxMem=   33554432 cpu:       0.0
 (Enter /usr/local/gaussian/g09/l301.exe)
 Standard basis: 6-31G(d) (6D, 7F)
 Ernie: Thresh=  0.10000D-02 Tol=  0.10000D-05 Strict=F.
 There are    12 symmetry adapted basis functions of AG  symmetry.
 There are     1 symmetry adapted basis functions of B1G symmetry.
 There are     4 symmetry adapted basis functions of B2G symmetry.
 There are     4 symmetry adapted basis functions of B3G symmetry.
 There are     1 symmetry adapted basis functions of AU  symmetry.
 There are    10 symmetry adapted basis functions of B1U symmetry.
 There are     4 symmetry adapted basis functions of B2U symmetry.
 There are     4 symmetry adapted basis functions of B3U symmetry.
 Integral buffers will be    131072 words long.
 Raffenetti 1 integral format.
 Two-electron integral symmetry is turned on.
    40 basis functions,   108 primitive gaussians,    40 cartesian basis functions
    18 alpha electrons       18 beta electrons
       nuclear repulsion energy        60.1644151168 Hartrees.
 IExCor=    0 DFT=F Ex=HF Corr=None ExCW=0 ScaHFX=  1.000000
 ScaDFX=  1.000000  1.000000  1.000000  1.000000 ScalE2=  1.000000  1.000000
 IRadAn=      0 IRanWt=     -1 IRanGd=            0 ICorTp=0
 NAtoms=    3 NActive=    3 NUniq=    2 SFac= 1.69D+00 NAtFMM=   80 NAOKFM=F Big=F
 Leave Link  301 at Wed Apr 12 22:07:41 2017, MaxMem=   33554432 cpu:       0.6
 (Enter /usr/local/gaussian/g09/l302.exe)
 NPDir=0 NMtPBC=     1 NCelOv=     1 NCel=       1 NClECP=     1 NCelD=      1
         NCelK=      1 NCelE2=     1 NClLst=     1 CellRange=     0.0.
 One-electron integrals computed using PRISM.
 One-electron integral symmetry used in STVInt
 NBasis=    40 RedAO= T  NBF=    12     1     4     4     1    10     4     4
 NBsUse=    40 1.00D-06 NBFU=    12     1     4     4     1    10     4     4
 Leave Link  302 at Wed Apr 12 22:07:41 2017, MaxMem=   33554432 cpu:       1.7
 (Enter /usr/local/gaussian/g09/l303.exe)
 DipDrv:  MaxL=1.
 Leave Link  303 at Wed Apr 12 22:07:42 2017, MaxMem=   33554432 cpu:       0.6
 (Enter /usr/local/gaussian/g09/l401.exe)
 Harris functional with IExCor=  205 diagonalized for initial guess.
 ExpMin= 1.43D-01 ExpMax= 2.52D+04 ExpMxC= 3.78D+03 IAcc=1 IRadAn=         1 AccDes= 0.00D+00
 HarFok:  IExCor=  205 AccDes= 0.00D+00 IRadAn=         1 IDoV= 1
 ScaDFX=  1.000000  1.000000  1.000000  1.000000
 FoFCou: FMM=F IPFlag=           0 FMFlag=      100000 FMFlg1=           0
         NFxFlg=           0 DoJE=T BraDBF=F KetDBF=T FulRan=T
         Omega=  0.000000  0.000000  1.000000  0.000000  0.000000 ICntrl=     500 IOpCl=  0
         NMat0=    1 NMatS0=    1 NMatT0=    0 NMatD0=    1 NMtDS0=    0 NMtDT0=    0
         I1Cent=           4 NGrid=           0.
 Petite list used in FoFCou.
 Harris En= -918.965145146320    
 Initial guess orbital symmetries:
       Occupied  (SGG) (SGU) (SGU) (SGG) (SGU) (SGG) (PIG) (PIG)
                 (PIU) (PIU) (SGG) (SGU) (SGG) (PIU) (PIU) (PIG)
                 (PIG) (SGU)
       Virtual   (SGG) (SGG) (SGU) (PIU) (PIU) (SGG) (PIG) (PIG)
                 (SGU) (PIU) (PIU) (PIG) (PIG) (DLTG) (DLTU) (DLTG)
                 (DLTU) (SGU) (SGG) (SGG) (SGG) (SGU)
 The electronic state of the initial guess is 1-SGG.
 Leave Link  401 at Wed Apr 12 22:07:42 2017, MaxMem=   33554432 cpu:       1.8
 (Enter /usr/local/gaussian/g09/l502.exe)
 Closed shell SCF:
 Requested convergence on RMS density matrix=1.00D-08 within 128 cycles.
 Requested convergence on MAX density matrix=1.00D-06.
 Requested convergence on             energy=1.00D-06.
 No special actions if energy rises.
 Using DIIS extrapolation, IDIIS=  1040.
 Integral symmetry usage will be decided dynamically.
 Keep R1 ints in memory in canonical form, NReq=1180232.
 IEnd=       23608 IEndB=       23608 NGot=    33554432 MDV=    33212467
 LenX=    33212467 LenY=    33210426
 Symmetry not used in FoFDir.
 MinBra= 0 MaxBra= 2 Meth= 1.
 IRaf=       0 NMat=   1 IRICut=       1 DoRegI=T DoRafI=F ISym2E= 0 JSym2E=0.

 Cycle   1  Pass 1  IDiag  1:
 E= -919.580073712874    
 DIIS: error= 1.19D-01 at cycle   1 NSaved=   1.
 NSaved= 1 IEnMin= 1 EnMin= -919.580073712874     IErMin= 1 ErrMin= 1.19D-01
 ErrMax= 1.19D-01 EMaxC= 1.00D-01 BMatC= 1.78D-01 BMatP= 1.78D-01
 IDIUse=3 WtCom= 0.00D+00 WtEn= 1.00D+00
 Coeff-Com:  0.100D+01
 Coeff-En:   0.100D+01
 Coeff:      0.100D+01
 Gap=     0.619 Goal=   None    Shift=    0.000
 GapD=    0.619 DampG=2.000 DampE=0.250 DampFc=0.5000 IDamp=-1.
 Damping current iteration by 5.00D-01
 RMSDP=6.80D-03 MaxDP=7.01D-02              OVMax= 2.55D-02

 Cycle   2  Pass 1  IDiag  1:
 E= -919.597074307167     Delta-E=       -0.017000594294 Rises=F Damp=T
 DIIS: error= 6.25D-02 at cycle   2 NSaved=   2.
 NSaved= 2 IEnMin= 2 EnMin= -919.597074307167     IErMin= 2 ErrMin= 6.25D-02
 ErrMax= 6.25D-02 EMaxC= 1.00D-01 BMatC= 4.76D-02 BMatP= 1.78D-01
 IDIUse=3 WtCom= 3.75D-01 WtEn= 6.25D-01
 Coeff-Com: -0.106D+01 0.206D+01
 Coeff-En:   0.000D+00 0.100D+01
 Coeff:     -0.399D+00 0.140D+01
 Gap=     0.618 Goal=   None    Shift=    0.000
 RMSDP=3.43D-03 MaxDP=3.89D-02 DE=-1.70D-02 OVMax= 5.34D-03

 Cycle   3  Pass 1  IDiag  1:
 E= -919.614460227711     Delta-E=       -0.017385920544 Rises=F Damp=F
 DIIS: error= 1.30D-03 at cycle   3 NSaved=   3.
 NSaved= 3 IEnMin= 3 EnMin= -919.614460227711     IErMin= 3 ErrMin= 1.30D-03
 ErrMax= 1.30D-03 EMaxC= 1.00D-01 BMatC= 5.19D-05 BMatP= 4.76D-02
 IDIUse=3 WtCom= 9.87D-01 WtEn= 1.30D-02
 Coeff-Com:  0.212D+00-0.433D+00 0.122D+01
 Coeff-En:   0.000D+00 0.000D+00 0.100D+01
 Coeff:      0.210D+00-0.427D+00 0.122D+01
 Gap=     0.622 Goal=   None    Shift=    0.000
 RMSDP=2.93D-04 MaxDP=3.94D-03 DE=-1.74D-02 OVMax= 3.88D-03

 Cycle   4  Pass 1  IDiag  1:
 E= -919.614520815343     Delta-E=       -0.000060587632 Rises=F Damp=F
 DIIS: error= 2.25D-04 at cycle   4 NSaved=   4.
 NSaved= 4 IEnMin= 4 EnMin= -919.614520815343     IErMin= 4 ErrMin= 2.25D-04
 ErrMax= 2.25D-04 EMaxC= 1.00D-01 BMatC= 1.48D-06 BMatP= 5.19D-05
 IDIUse=3 WtCom= 9.98D-01 WtEn= 2.25D-03
 Coeff-Com:  0.335D-03 0.128D-02-0.178D+00 0.118D+01
 Coeff-En:   0.000D+00 0.000D+00 0.000D+00 0.100D+01
 Coeff:      0.334D-03 0.127D-02-0.178D+00 0.118D+01
 Gap=     0.622 Goal=   None    Shift=    0.000
 RMSDP=7.23D-05 MaxDP=9.21D-04 DE=-6.06D-05 OVMax= 9.29D-04

 Cycle   5  Pass 1  IDiag  1:
 E= -919.614524192772     Delta-E=       -0.000003377428 Rises=F Damp=F
 DIIS: error= 3.42D-05 at cycle   5 NSaved=   5.
 NSaved= 5 IEnMin= 5 EnMin= -919.614524192772     IErMin= 5 ErrMin= 3.42D-05
 ErrMax= 3.42D-05 EMaxC= 1.00D-01 BMatC= 4.67D-08 BMatP= 1.48D-06
 IDIUse=1 WtCom= 1.00D+00 WtEn= 0.00D+00
 Coeff-Com: -0.596D-02 0.118D-01 0.823D-02-0.290D+00 0.128D+01
 Coeff:     -0.596D-02 0.118D-01 0.823D-02-0.290D+00 0.128D+01
 Gap=     0.623 Goal=   None    Shift=    0.000
 RMSDP=1.49D-05 MaxDP=2.17D-04 DE=-3.38D-06 OVMax= 1.45D-04

 Cycle   6  Pass 1  IDiag  1:
 E= -919.614524313354     Delta-E=       -0.000000120582 Rises=F Damp=F
 DIIS: error= 4.22D-06 at cycle   6 NSaved=   6.
 NSaved= 6 IEnMin= 6 EnMin= -919.614524313354     IErMin= 6 ErrMin= 4.22D-06
 ErrMax= 4.22D-06 EMaxC= 1.00D-01 BMatC= 4.63D-10 BMatP= 4.67D-08
 IDIUse=1 WtCom= 1.00D+00 WtEn= 0.00D+00
 Coeff-Com:  0.161D-02-0.321D-02 0.674D-03 0.569D-01-0.312D+00 0.126D+01
 Coeff:      0.161D-02-0.321D-02 0.674D-03 0.569D-01-0.312D+00 0.126D+01
 Gap=     0.623 Goal=   None    Shift=    0.000
 RMSDP=1.59D-06 MaxDP=2.12D-05 DE=-1.21D-07 OVMax= 2.42D-06

 Cycle   7  Pass 1  IDiag  1:
 E= -919.614524314366     Delta-E=       -0.000000001012 Rises=F Damp=F
 DIIS: error= 3.66D-07 at cycle   7 NSaved=   7.
 NSaved= 7 IEnMin= 7 EnMin= -919.614524314366     IErMin= 7 ErrMin= 3.66D-07
 ErrMax= 3.66D-07 EMaxC= 1.00D-01 BMatC= 5.17D-12 BMatP= 4.63D-10
 IDIUse=1 WtCom= 1.00D+00 WtEn= 0.00D+00
 Coeff-Com:  0.173D-03-0.343D-03-0.130D-03 0.757D-02-0.392D-01 0.101D+00
 Coeff-Com:  0.931D+00
 Coeff:      0.173D-03-0.343D-03-0.130D-03 0.757D-02-0.392D-01 0.101D+00
 Coeff:      0.931D+00
 Gap=     0.623 Goal=   None    Shift=    0.000
 RMSDP=1.07D-07 MaxDP=7.80D-07 DE=-1.01D-09 OVMax= 6.50D-07

 Cycle   8  Pass 1  IDiag  1:
 E= -919.614524314372     Delta-E=       -0.000000000006 Rises=F Damp=F
 DIIS: error= 8.68D-08 at cycle   8 NSaved=   8.
 NSaved= 8 IEnMin= 8 EnMin= -919.614524314372     IErMin= 8 ErrMin= 8.68D-08
 ErrMax= 8.68D-08 EMaxC= 1.00D-01 BMatC= 1.80D-13 BMatP= 5.17D-12
 IDIUse=1 WtCom= 1.00D+00 WtEn= 0.00D+00
 Coeff-Com: -0.551D-04 0.110D-03-0.174D-04-0.197D-02 0.110D-01-0.441D-01
 Coeff-Com: -0.499D-02 0.104D+01
 Coeff:     -0.551D-04 0.110D-03-0.174D-04-0.197D-02 0.110D-01-0.441D-01
 Coeff:     -0.499D-02 0.104D+01
 Gap=     0.623 Goal=   None    Shift=    0.000
 RMSDP=2.32D-08 MaxDP=2.35D-07 DE=-6.14D-12 OVMax= 1.69D-07

 Cycle   9  Pass 1  IDiag  1:
 E= -919.614524314375     Delta-E=       -0.000000000003 Rises=F Damp=F
 DIIS: error= 9.96D-09 at cycle   9 NSaved=   9.
 NSaved= 9 IEnMin= 9 EnMin= -919.614524314375     IErMin= 9 ErrMin= 9.96D-09
 ErrMax= 9.96D-09 EMaxC= 1.00D-01 BMatC= 3.79D-15 BMatP= 1.80D-13
 IDIUse=1 WtCom= 1.00D+00 WtEn= 0.00D+00
 Coeff-Com:  0.732D-05-0.146D-04 0.841D-05 0.180D-03-0.109D-02 0.549D-02
 Coeff-Com: -0.207D-01-0.177D+00 0.119D+01
 Coeff:      0.732D-05-0.146D-04 0.841D-05 0.180D-03-0.109D-02 0.549D-02
 Coeff:     -0.207D-01-0.177D+00 0.119D+01
 Gap=     0.623 Goal=   None    Shift=    0.000
 RMSDP=5.45D-09 MaxDP=5.18D-08 DE=-2.50D-12 OVMax= 3.56D-08

 SCF Done:  E(RHF) =  -919.614524314     A.U. after    9 cycles
             Convg  =    0.5452D-08             -V/T =  2.0004
 KE= 9.192411634539D+02 PE=-2.319600721334D+03 EE= 4.205806184486D+02
 Leave Link  502 at Wed Apr 12 22:07:43 2017, MaxMem=   33554432 cpu:       1.4
 (Enter /usr/local/gaussian/g09/l801.exe)
 Range of M.O.s used for correlation:     1    40
 NBasis=    40 NAE=    18 NBE=    18 NFC=     0 NFV=     0
 NROrb=     40 NOA=    18 NOB=    18 NVA=    22 NVB=    22
 Leave Link  801 at Wed Apr 12 22:07:43 2017, MaxMem=   33554432 cpu:       0.6
 (Enter /usr/local/gaussian/g09/l1002.exe)
 Minotr:  Closed shell wavefunction.
          Direct CPHF calculation.
          Differentiating once with respect to electric field.
                with respect to dipole field.
          Electric field/nuclear overlap derivatives assumed to be zero.
          Using symmetry in CPHF.
          Requested convergence is 1.0D-08 RMS, and 1.0D-07 maximum.
          Secondary convergence is 1.0D-12 RMS, and 1.0D-12 maximum.
          NewPWx=F KeepS1=T KeepF1=T KeepIn=T MapXYZ=F SortEE=F KeepMc=T.
          MDV=      33554404 using IRadAn=       2.
          Keep R1 ints in memory in canonical form, NReq=1157466.
 Symmetry not used in FoFDir.
 MinBra= 0 MaxBra= 2 Meth= 1.
 IRaf=       0 NMat=   1 IRICut=       1 DoRegI=T DoRafI=F ISym2E= 0 JSym2E=0.
          Solving linear equations simultaneously, MaxMat=       0.
          There are     3 degrees of freedom in the 1st order CPHF.  IDoFFX=0.
      3 vectors produced by pass  0 Test12= 1.32D-14 3.33D-08 XBig12= 1.25D+01 3.43D+00.
 AX will form     3 AO Fock derivatives at one time.
      3 vectors produced by pass  1 Test12= 1.32D-14 3.33D-08 XBig12= 5.69D-01 3.04D-01.
      3 vectors produced by pass  2 Test12= 1.32D-14 3.33D-08 XBig12= 2.57D-02 1.03D-01.
      3 vectors produced by pass  3 Test12= 1.32D-14 3.33D-08 XBig12= 1.38D-03 1.88D-02.
      3 vectors produced by pass  4 Test12= 1.32D-14 3.33D-08 XBig12= 1.98D-05 2.61D-03.
      3 vectors produced by pass  5 Test12= 1.32D-14 3.33D-08 XBig12= 8.81D-08 1.31D-04.
      3 vectors produced by pass  6 Test12= 1.32D-14 3.33D-08 XBig12= 4.48D-10 8.61D-06.
      3 vectors produced by pass  7 Test12= 1.32D-14 3.33D-08 XBig12= 2.84D-12 6.71D-07.
      1 vectors produced by pass  8 Test12= 1.32D-14 3.33D-08 XBig12= 9.77D-15 5.32D-08.
 Inverted reduced A of dimension    25 with in-core refinement.
 End of Minotr Frequency-dependent properties file   721 does not exist.
 End of Minotr Frequency-dependent properties file   722 does not exist.
 Leave Link 1002 at Wed Apr 12 22:07:44 2017, MaxMem=   33554432 cpu:       1.3
 (Enter /usr/local/gaussian/g09/l1101.exe)
 Using compressed storage, NAtomX=     3.
 Will process   4 centers per pass.
 Leave Link 1101 at Wed Apr 12 22:07:44 2017, MaxMem=   33554432 cpu:       1.2
 (Enter /usr/local/gaussian/g09/l1102.exe)
 Symmetrizing basis deriv contribution to polar:
 IMax=3 JMax=2 DiffMx= 0.00D+00
 Leave Link 1102 at Wed Apr 12 22:07:45 2017, MaxMem=   33554432 cpu:       0.8
 (Enter /usr/local/gaussian/g09/l1110.exe)
 Forming Gx(P) for the SCF density, NAtomX=     3.
 Integral derivatives from FoFDir/FoFCou, PRISM(SPDF).
 Do as many integral derivatives as possible in FoFDir.
 G2DrvN: MDV=      33554304.
 G2DrvN: will do     4 centers at a time, making    1 passes doing MaxLOS=2.
 Calling FoFCou, ICntrl=  3107 FMM=F I1Cent=   0 AccDes= 0.00D+00.
 FoFCou: FMM=F IPFlag=           0 FMFlag=      100000 FMFlg1=           0
         NFxFlg=           0 DoJE=F BraDBF=F KetDBF=F FulRan=T
         Omega=  0.000000  0.000000  1.000000  0.000000  0.000000 ICntrl=    3107 IOpCl=  0
         NMat0=    1 NMatS0=    1 NMatT0=    0 NMatD0=    4 NMtDS0=    3 NMtDT0=    0
         I1Cent=           0 NGrid=           0.
 Petite list used in FoFCou.
 FoFDir/FoFCou used for L=0 through L=2.
 End of G2Drv Frequency-dependent properties file   721 does not exist.
 End of G2Drv Frequency-dependent properties file   722 does not exist.
 Leave Link 1110 at Wed Apr 12 22:07:46 2017, MaxMem=   33554432 cpu:       2.8
 (Enter /usr/local/gaussian/g09/l1002.exe)
 Minotr:  Closed shell wavefunction.
          IDoAtm=111
          Direct CPHF calculation.
          Differentiating once with respect to electric field.
                with respect to dipole field.
          Differentiating once with respect to nuclear coordinates.
          Using symmetry in CPHF.
          Requested convergence is 1.0D-08 RMS, and 1.0D-07 maximum.
          Secondary convergence is 1.0D-12 RMS, and 1.0D-12 maximum.
          NewPWx=T KeepS1=F KeepF1=F KeepIn=T MapXYZ=F SortEE=F KeepMc=T.
          MDV=      33554398 using IRadAn=       2.
          Keep R1 ints in memory in canonical form, NReq=1157529.
 Symmetry not used in FoFDir.
 MinBra= 0 MaxBra= 2 Meth= 1.
 IRaf=       0 NMat=   1 IRICut=       1 DoRegI=T DoRafI=F ISym2E= 0 JSym2E=0.
          Solving linear equations simultaneously, MaxMat=       0.
          There are     9 degrees of freedom in the 1st order CPHF.  IDoFFX=4.
 Will reuse    3 saved solutions.
      6 vectors produced by pass  0 Test12= 4.40D-15 1.11D-08 XBig12= 3.46D-02 1.01D-01.
 AX will form     6 AO Fock derivatives at one time.
      6 vectors produced by pass  1 Test12= 4.40D-15 1.11D-08 XBig12= 1.44D-03 2.24D-02.
      6 vectors produced by pass  2 Test12= 4.40D-15 1.11D-08 XBig12= 1.01D-04 4.93D-03.
      6 vectors produced by pass  3 Test12= 4.40D-15 1.11D-08 XBig12= 4.95D-06 9.19D-04.
      6 vectors produced by pass  4 Test12= 4.40D-15 1.11D-08 XBig12= 1.37D-07 2.58D-04.
      6 vectors produced by pass  5 Test12= 4.40D-15 1.11D-08 XBig12= 6.09D-10 1.22D-05.
      6 vectors produced by pass  6 Test12= 4.40D-15 1.11D-08 XBig12= 3.05D-12 7.04D-07.
      2 vectors produced by pass  7 Test12= 4.40D-15 1.11D-08 XBig12= 1.18D-14 3.72D-08.
 Inverted reduced A of dimension    44 with in-core refinement.
 FullF1:  Do perturbations    1 to     9.
 Isotropic polarizability for W=    0.000000       23.72 Bohr**3.
 FullF1:  Do perturbations    1 to     6.
 End of Minotr Frequency-dependent properties file   721 does not exist.
 End of Minotr Frequency-dependent properties file   722 does not exist.
 Leave Link 1002 at Wed Apr 12 22:07:50 2017, MaxMem=   33554432 cpu:       9.1
 (Enter /usr/local/gaussian/g09/l601.exe)
 Copying SCF densities to generalized density rwf, IOpCl= 0 IROHF=0.

 **********************************************************************

            Population analysis using the SCF density.

 **********************************************************************

 Orbital symmetries:
       Occupied  (SGU) (SGG) (SGU) (SGG) (SGG) (SGU) (PIG) (PIG)
                 (PIU) (PIU) (SGG) (SGU) (SGG) (PIU) (PIU) (PIG)
                 (PIG) (SGU)
       Virtual   (SGG) (SGG) (SGU) (PIU) (PIU) (SGG) (PIG) (PIG)
                 (SGU) (PIU) (PIU) (PIG) (PIG) (DLTU) (DLTU) (DLTG)
                 (DLTG) (SGU) (SGG) (SGG) (SGG) (SGU)
 The electronic state is 1-SGG.
 Alpha  occ. eigenvalues -- -104.57331-104.57331 -10.30699 -10.30697  -7.77581
 Alpha  occ. eigenvalues --   -7.77581  -7.77388  -7.77388  -7.77387  -7.77387
 Alpha  occ. eigenvalues --   -0.85864  -0.81609  -0.39431  -0.23997  -0.23997
 Alpha  occ. eigenvalues --   -0.22236  -0.22236  -0.19777
 Alpha virt. eigenvalues --    0.42485   0.73567   0.76261   0.80762   0.80762
 Alpha virt. eigenvalues --    0.82549   0.88745   0.88745   0.99446   1.37903
 Alpha virt. eigenvalues --    1.37903   1.38068   1.38068   1.39230   1.39230
 Alpha virt. eigenvalues --    1.39236   1.39236   1.42268   1.48166   1.71714
 Alpha virt. eigenvalues --    4.89402   4.91808
          Condensed to atoms (all electrons):
              1          2          3
     1  H    0.498011   0.133752   0.133752
     2  Cl   0.133752  17.639362  -0.155872
     3  Cl   0.133752  -0.155872  17.639362
 Mulliken atomic charges:
              1
     1  H    0.234485
     2  Cl  -0.617242
     3  Cl  -0.617242
 Sum of Mulliken atomic charges =  -1.00000
 Mulliken charges with hydrogens summed into heavy atoms:
              1
     2  Cl  -0.382758
     3  Cl  -0.617242
 Sum of Mulliken charges with hydrogens summed into heavy atoms =  -1.00000
 APT atomic charges:
              1
     1  H    1.076252
     2  Cl  -1.038126
     3  Cl  -1.038126
 Sum of APT charges=  -1.00000
 APT Atomic charges with hydrogens summed into heavy atoms:
              1
     1  H    0.000000
     2  Cl   0.038126
     3  Cl  -1.038126
 Sum of APT charges=  -1.00000
 Electronic spatial extent (au):  <R**2>=            377.3726
 Charge=             -1.0000 electrons
 Dipole moment (field-independent basis, Debye):
    X=              0.0000    Y=              0.0000    Z=              0.0000  Tot=              0.0000
 Quadrupole moment (field-independent basis, Debye-Ang):
   XX=            -30.0164   YY=            -30.0164   ZZ=            -45.0061
   XY=              0.0000   XZ=              0.0000   YZ=              0.0000
 Traceless Quadrupole moment (field-independent basis, Debye-Ang):
   XX=              4.9966   YY=              4.9966   ZZ=             -9.9932
   XY=              0.0000   XZ=              0.0000   YZ=              0.0000
 Octapole moment (field-independent basis, Debye-Ang**2):
  XXX=              0.0000  YYY=              0.0000  ZZZ=              0.0000  XYY=              0.0000
  XXY=              0.0000  XXZ=              0.0000  XZZ=              0.0000  YZZ=              0.0000
  YYZ=              0.0000  XYZ=              0.0000
 Hexadecapole moment (field-independent basis, Debye-Ang**3):
 XXXX=            -35.8339 YYYY=            -35.8339 ZZZZ=           -486.6360 XXXY=              0.0000
 XXXZ=              0.0000 YYYX=              0.0000 YYYZ=              0.0000 ZZZX=              0.0000
 ZZZY=              0.0000 XXYY=            -11.9446 XXZZ=            -84.7255 YYZZ=            -84.7255
 XXYZ=              0.0000 YYXZ=              0.0000 ZZXY=              0.0000
 N-N= 6.016441511676D+01 E-N=-2.319600721675D+03  KE= 9.192411634539D+02
 Symmetry AG   KE= 3.677075583557D+02
 Symmetry B1G  KE= 5.778031599800D-37
 Symmetry B2G  KE= 4.561094033574D+01
 Symmetry B3G  KE= 4.561094033574D+01
 Symmetry AU   KE= 2.620688630579D-36
 Symmetry B1U  KE= 3.696128023881D+02
 Symmetry B2U  KE= 4.534946101933D+01
 Symmetry B3U  KE= 4.534946101933D+01
  Exact polarizability:  12.525   0.000  12.525   0.000   0.000  46.106
 Approx polarizability:  11.298   0.000  11.298   0.000   0.000  34.132
 No NMR shielding tensors so no spin-rotation constants.
 Leave Link  601 at Wed Apr 12 22:07:52 2017, MaxMem=   33554432 cpu:       3.1
 (Enter /usr/local/gaussian/g09/l701.exe)
 Compute integral second derivatives.
 ... and contract with generalized density number  0.
 Leave Link  701 at Wed Apr 12 22:07:53 2017, MaxMem=   33554432 cpu:       2.7
 (Enter /usr/local/gaussian/g09/l702.exe)
 L702 exits ... SP integral derivatives will be done elsewhere.
 Leave Link  702 at Wed Apr 12 22:07:54 2017, MaxMem=   33554432 cpu:       0.7
 (Enter /usr/local/gaussian/g09/l703.exe)
 Compute integral second derivatives, UseDBF=F ICtDFT=           0.
 Integral derivatives from FoFDir, PRISM(SPDF).
 Calling FoFJK, ICntrl=    100127 FMM=F ISym2X=1 I1Cent= 0 IOpClX= 0 NMat=1 NMatS=1 NMatT=0.
 FoFCou: FMM=F IPFlag=           0 FMFlag=      100000 FMFlg1=         800
         NFxFlg=           0 DoJE=F BraDBF=F KetDBF=F FulRan=T
         Omega=  0.000000  0.000000  1.000000  0.000000  0.000000 ICntrl=  100127 IOpCl=  0
         NMat0=    1 NMatS0=    1 NMatT0=    0 NMatD0=    1 NMtDS0=    0 NMtDT0=    0
         I1Cent=           0 NGrid=           0.
 Petite list used in FoFCou.
 Leave Link  703 at Wed Apr 12 22:07:56 2017, MaxMem=   33554432 cpu:       4.1
 (Enter /usr/local/gaussian/g09/l716.exe)
 Dipole        =-2.27242144D-16 2.31111593D-33 3.15162935D-14
 Polarizability= 1.25247069D+01 0.00000000D+00 1.25247069D+01
                -2.56303093D-15 0.00000000D+00 4.61055496D+01
 HyperPolar    = 7.52259443D-15 1.07259658D-15 2.50753148D-15
                 3.21778975D-15 1.83686190D-13-1.47073835D-31
                 1.74825624D-13-1.91982186D-14-1.06085858D-15
                -8.29530409D-13
 Full mass-weighted force constant matrix:
 Low frequencies ----1013.5062  -12.8095  -12.8095    0.0025    0.0026    0.0043
 Low frequencies ---  344.3931  901.3014  901.3014
 ******    1 imaginary frequencies (negative Signs) ****** 
 Diagonal vibrational polarizability:
        2.1146304       2.1146304     196.0093971
 Diagonal vibrational hyperpolarizability:
        0.0000000       0.0000000       0.0000000
 Harmonic frequencies (cm**-1), IR intensities (KM/Mole), Raman scattering
 activities (A**4/AMU), depolarization ratios for plane and unpolarized
 incident light, reduced masses (AMU), force constants (mDyne/A),
 and normal coordinates:
                     1                      2                      3
                    SGU                    SGG                    PIU
 Frequencies -- -1013.5062               344.3931               901.3014
 Red. masses --     1.0219                34.9689                 1.0219
 Frc consts  --     0.6185                 2.4437                 0.4891
 IR Inten    --  7481.6367                 0.0000                63.8324
 Raman Activ --     0.0000                11.6157                 0.0000
 Depolar (P) --     0.0000                 0.3828                 0.0000
 Depolar (U) --     0.0000                 0.5537                 0.0000
  Atom  AN      X      Y      Z        X      Y      Z        X      Y      Z
     1   1     0.00   0.00   1.00     0.00   0.00   0.00     0.00   1.00   0.00
     2  17     0.00   0.00  -0.01     0.00   0.00   0.71     0.00  -0.01   0.00
     3  17     0.00   0.00  -0.01     0.00   0.00  -0.71     0.00  -0.01   0.00
                     4
                    PIU
 Frequencies --   901.3014
 Red. masses --     1.0219
 Frc consts  --     0.4891
 IR Inten    --    63.8324
 Raman Activ --     0.0000
 Depolar (P) --     0.0000
 Depolar (U) --     0.0000
  Atom  AN      X      Y      Z
     1   1     1.00   0.00   0.00
     2  17    -0.01   0.00   0.00
     3  17    -0.01   0.00   0.00

 -------------------
 - Thermochemistry -
 -------------------
 Temperature   298.150 Kelvin.  Pressure   1.00000 Atm.
 Atom     1 has atomic number  1 and mass   1.00783
 Atom     2 has atomic number 17 and mass  34.96885
 Atom     3 has atomic number 17 and mass  34.96885
 Molecular mass:    70.94553 amu.
 Principal axes and moments of inertia in atomic units:
                           1         2         3
     Eigenvalues --     0.00000 615.61391 615.61391
           X            0.00000   1.00000   0.00000
           Y            0.00000   0.00000   1.00000
           Z            1.00000   0.00000   0.00000
 This molecule is a prolate symmetric top.
 Rotational symmetry number  2.
 Warning -- assumption of classical behavior for rotation
           may cause significant error
 Rotational temperature (Kelvin)      0.14070
 Rotational constant (GHZ):           2.931612
    1 imaginary frequencies ignored.
 Zero-point vibrational energy      12841.9 (Joules/Mol)
                                    3.06928 (Kcal/Mol)
 Warning -- explicit consideration of   1 degrees of freedom as
           vibrations may cause significant error
 Vibrational temperatures:    495.50  1296.77  1296.77
          (Kelvin)
 
 Zero-point correction=                           0.004891 (Hartree/Particle)
 Thermal correction to Energy=                    0.007727
 Thermal correction to Enthalpy=                  0.008671
 Thermal correction to Gibbs Free Energy=        -0.017934
 Sum of electronic and zero-point Energies=           -919.609633
 Sum of electronic and thermal Energies=              -919.606798
 Sum of electronic and thermal Enthalpies=            -919.605853
 Sum of electronic and thermal Free Energies=         -919.632458
 
                     E (Thermal)             CV                S
                      KCal/Mol        Cal/Mol-Kelvin    Cal/Mol-Kelvin
 Total                    4.849              7.551             55.994
 Electronic               0.000              0.000              0.000
 Translational            0.889              2.981             38.695
 Rotational               0.592              1.987             15.829
 Vibrational              3.367              2.583              1.470
 Vibration     1          0.723              1.587              1.192
                       Q            Log10(Q)             Ln(Q)
 Total Bot       0.177359D+09          8.248854         18.993688
 Total V=0       0.315248D+11         10.498652         24.174041
 Vib (Bot)       0.712664D-02         -2.147115         -4.943915
 Vib (Bot)    1  0.537662D+00         -0.269490         -0.620525
 Vib (V=0)       0.126673D+01          0.102684          0.236438
 Vib (V=0)    1  0.123422D+01          0.091393          0.210440
 Electronic      0.100000D+01          0.000000          0.000000
 Translational   0.234878D+08          7.370843         16.971993
 Rotational      0.105956D+04          3.025126          6.965610
 
                                                         Title Card Required
                                                             IR Spectrum
 
                                                                                                                                     
      9                                                                             3                                                
      0                                                                             4                                                
      1                                                                             4                                                
 
      X                                                                                                                              
      X                                                                                                                              
      X                                                                                                                              
      X                                                                                                                              
      X                                                                                                                              
      X                                                                                                                              
      X                                                                                                                              
      X                                                                                                                              
      X                                                                                                                              
      X                                                                                                                              
      X                                                                                                                              
      X                                                                                                                              
      X                                                                                                                              
      X                                                                                                                              
      X                                                                                                                              
      X                                                                                                                              
      X                                                                                                                              
      X                                                                                                                              
      X                                                                                                                              
      X                                                                                                                              
 
 
                                                         Title Card Required
                                                            Raman Spectrum
 
                                                                                                                                     
      9                                                                             3                                                
      0                                                                             4                                                
      1                                                                             4                                                
 
                                                                                    X                                                
                                                                                    X                                                
                                                                                    X                                                
                                                                                    X                                                
                                                                                    X                                                
                                                                                    X                                                
                                                                                    X                                                
                                                                                    X                                                
                                                                                    X                                                
                                                                                    X                                                
                                                                                    X                                                
                                                                                    X                                                
                                                                                    X                                                
                                                                                    X                                                
                                                                                    X                                                
                                                                                    X                                                
                                                                                    X                                                
                                                                                    X                                                
                                                                                    X                                                
                                                                                    X                                                
 
 ***** Axes restored to original set *****
 -------------------------------------------------------------------
 Center     Atomic                   Forces (Hartrees/Bohr)
 Number     Number              X              Y              Z
 -------------------------------------------------------------------
      1        1           0.000000000    0.000000000    0.000000000
      2       17           0.000000000    0.000000000    0.000644227
      3       17           0.000000000    0.000000000   -0.000644227
 -------------------------------------------------------------------
 Cartesian Forces:  Max     0.000644227 RMS     0.000303692
 Z-matrix is all fixed cartesians, so copy forces.
 Force constants in Cartesian coordinates: 
                1             2             3             4             5 
      1  0.305424D-01
      2  0.000000D+00  0.305424D-01
      3  0.000000D+00  0.000000D+00 -0.386203D-01
      4 -0.152712D-01  0.000000D+00  0.000000D+00  0.752703D-02
      5  0.000000D+00 -0.152712D-01  0.000000D+00  0.000000D+00  0.752703D-02
      6  0.000000D+00  0.000000D+00  0.193102D-01  0.000000D+00  0.000000D+00
      7 -0.152712D-01  0.000000D+00  0.000000D+00  0.774417D-02  0.000000D+00
      8  0.000000D+00 -0.152712D-01  0.000000D+00  0.000000D+00  0.774417D-02
      9  0.000000D+00  0.000000D+00  0.193102D-01  0.000000D+00  0.000000D+00
                6             7             8             9 
      6  0.688236D-01
      7  0.000000D+00  0.752703D-02
      8  0.000000D+00  0.000000D+00  0.752703D-02
      9 -0.881338D-01  0.000000D+00  0.000000D+00  0.688236D-01
 Leave Link  716 at Wed Apr 12 22:07:57 2017, MaxMem=   33554432 cpu:       1.0
 (Enter /usr/local/gaussian/g09/l103.exe)

 GradGradGradGradGradGradGradGradGradGradGradGradGradGradGradGradGradGrad
 Berny optimization.
 Search for a local minimum.
 Step number   1 out of a maximum of    2
 All quantities printed in internal units (Hartrees-Bohrs-Radians)
 Second derivative matrix not updated -- analytic derivatives used.
 The second derivative matrix:
                          X1        Y1        Z1        X2        Y2
           X1           0.03054
           Y1           0.00000   0.03054
           Z1           0.00000   0.00000  -0.03862
           X2          -0.01527   0.00000   0.00000   0.00753
           Y2           0.00000  -0.01527   0.00000   0.00000   0.00753
           Z2           0.00000   0.00000   0.01931   0.00000   0.00000
           X3          -0.01527   0.00000   0.00000   0.00774   0.00000
           Y3           0.00000  -0.01527   0.00000   0.00000   0.00774
           Z3           0.00000   0.00000   0.01931   0.00000   0.00000
                          Z2        X3        Y3        Z3
           Z2           0.06882
           X3           0.00000   0.00753
           Y3           0.00000   0.00000   0.00753
           Z3          -0.08813   0.00000   0.00000   0.06882
     Eigenvalues ---   -0.04717   0.03730   0.03730   0.15696
 Eigenvalue     1 is  -4.72D-02 should be greater than     0.000000 Eigenvector:
                          Z1        Z3        Z2        X1        X3
   1                    0.98561  -0.11952  -0.11952   0.00000   0.00000
                          X2        Y1        Y3        Y2
   1                    0.00000   0.00000   0.00000   0.00000
 Angle between quadratic step and forces=   0.00 degrees.
 ClnCor:  largest displacement from symmetrization is 2.49D-14 for atom     1.
 Linear search not attempted -- first point.
 ClnCor:  largest displacement from symmetrization is 3.96D-31 for atom     1.
 TrRot=  0.000000  0.000000  0.000000  0.000000  0.000000  0.000000
 Variable       Old X    -DE/DX   Delta X   Delta X   Delta X     New X
                                 (Linear)    (Quad)   (Total)
    X1        0.00000   0.00000   0.00000   0.00000   0.00000   0.00000
    Y1        0.00000   0.00000   0.00000   0.00000   0.00000   0.00000
    Z1        0.00000   0.00000   0.00000   0.00000   0.00000   0.00000
    X2        0.00000   0.00000   0.00000   0.00000   0.00000   0.00000
    Y2        0.00000   0.00000   0.00000   0.00000   0.00000   0.00000
    Z2        2.96687   0.00064   0.00000   0.00410   0.00410   2.97097
    X3        0.00000   0.00000   0.00000   0.00000   0.00000   0.00000
    Y3        0.00000   0.00000   0.00000   0.00000   0.00000   0.00000
    Z3       -2.96687  -0.00064   0.00000  -0.00410  -0.00410  -2.97097
         Item               Value     Threshold  Converged?
 Maximum Force            0.000644     0.000450     NO 
 RMS     Force            0.000304     0.000300     NO 
 Maximum Displacement     0.004104     0.001800     NO 
 RMS     Displacement     0.001935     0.001200     NO 
 Predicted change in Energy=-2.644212D-06
 GradGradGradGradGradGradGradGradGradGradGradGradGradGradGradGradGradGrad

 Leave Link  103 at Wed Apr 12 22:07:57 2017, MaxMem=   33554432 cpu:       0.3
 (Enter /usr/local/gaussian/g09/l9999.exe)
 1\1\GINC-BRIGHTEYES\Freq\RHF\6-31G(d)\Cl2H1(1-)\RPATON\12-Apr-2017\0\\
 #p freq rhf/6-31g(d)\\Title Card Required\\-1,1\H,0.,0.,0.\Cl,0.,0.,1.
 57\Cl,0.,0.,-1.57\\Version=EM64L-G09RevA.02\State=1-SGG\HF=-919.614524
 3\RMSD=5.452e-09\RMSF=3.037e-04\ZeroPoint=0.0048912\Thermal=0.0077267\
 Dipole=0.,0.,0.\DipoleDeriv=0.2408476,0.,0.,0.,0.2408476,0.,0.,0.,2.74
 70614,-0.6204238,0.,0.,0.,-0.6204238,0.,0.,0.,-1.8735307,-0.6204238,0.
 ,0.,0.,-0.6204238,0.,0.,0.,-1.8735307\Polar=12.5247069,0.,12.5247069,0
 .,0.,46.1055496\PolarDeriv=0.,0.,0.,0.,0.,0.,0.,0.,0.,0.,0.,0.,0.,0.,0
 .,0.,0.,0.,0.,0.,0.,5.6593047,0.,0.,0.,0.,0.,0.,5.6593047,0.,-0.639493
 1,0.,-0.6394931,0.,0.,14.8205515,0.,0.,0.,-5.6593047,0.,0.,0.,0.,0.,0.
 ,-5.6593047,0.,0.6394931,0.,0.6394931,0.,0.,-14.8205515\HyperPolar=0.,
 0.,0.,0.,0.,0.,0.,0.,0.,0.\PG=D*H [O(H1),C*(Cl1.Cl1)]\NImag=1\\0.03054
 239,0.,0.03054239,0.,0.,-0.03862031,-0.01527120,0.,0.,0.00752703,0.,-0
 .01527120,0.,0.,0.00752703,0.,0.,0.01931015,0.,0.,0.06882362,-0.015271
 20,0.,0.,0.00774417,0.,0.,0.00752703,0.,-0.01527120,0.,0.,0.00774417,0
 .,0.,0.00752703,0.,0.,0.01931015,0.,0.,-0.08813378,0.,0.,0.06882362\\0
 .,0.,0.,0.,0.,-0.00064423,0.,0.,0.00064423\\\@


 KNOWLEDGE IS EXPERIMENT'S DAUGHTER.
 -- LEONARDO DA VINCI, IN "PENSIERI" CA. 1492
 Job cpu time:  0 days  0 hours  0 minutes 42.0 seconds.
 File lengths (MBytes):  RWF=      5 Int=      0 D2E=      0 Chk=      1 Scr=      1
 Normal termination of Gaussian 09 at Wed Apr 12 22:07:58 2017.
