 Entering Gaussian System, Link 0=g09
 Initial command:
 /usr/local/gaussian/g09/l1.exe "/home/virgil/rpaton/Gau-19375.inp" -scrdir="/home/virgil/rpaton/"
 Entering Link 1 = /usr/local/gaussian/g09/l1.exe PID=     19376.
  
 Copyright (c) 1988,1990,1992,1993,1995,1998,2003,2009,2013,
            Gaussian, Inc.  All Rights Reserved.
  
 This is part of the Gaussian(R) 09 program.  It is based on
 the Gaussian(R) 03 system (copyright 2003, Gaussian, Inc.),
 the Gaussian(R) 98 system (copyright 1998, Gaussian, Inc.),
 the Gaussian(R) 94 system (copyright 1995, Gaussian, Inc.),
 the Gaussian 92(TM) system (copyright 1992, Gaussian, Inc.),
 the Gaussian 90(TM) system (copyright 1990, Gaussian, Inc.),
 the Gaussian 88(TM) system (copyright 1988, Gaussian, Inc.),
 the Gaussian 86(TM) system (copyright 1986, Carnegie Mellon
 University), and the Gaussian 82(TM) system (copyright 1983,
 Carnegie Mellon University). Gaussian is a federally registered
 trademark of Gaussian, Inc.
  
 This software contains proprietary and confidential information,
 including trade secrets, belonging to Gaussian, Inc.
  
 This software is provided under written license and may be
 used, copied, transmitted, or stored only in accord with that
 written license.
  
 The following legend is applicable only to US Government
 contracts under FAR:
  
                    RESTRICTED RIGHTS LEGEND
  
 Use, reproduction and disclosure by the US Government is
 subject to restrictions as set forth in subparagraphs (a)
 and (c) of the Commercial Computer Software - Restricted
 Rights clause in FAR 52.227-19.
  
 Gaussian, Inc.
 340 Quinnipiac St., Bldg. 40, Wallingford CT 06492
  
  
 ---------------------------------------------------------------
 Warning -- This program may not be used in any manner that
 competes with the business of Gaussian, Inc. or will provide
 assistance to any competitor of Gaussian, Inc.  The licensee
 of this program is prohibited from giving any competitor of
 Gaussian, Inc. access to this program.  By using this program,
 the user acknowledges that Gaussian, Inc. is engaged in the
 business of creating and licensing software in the field of
 computational chemistry and represents and warrants to the
 licensee that it is not a competitor of Gaussian, Inc. and that
 it will not use this program in any manner prohibited above.
 ---------------------------------------------------------------
  

 Cite this work as:
 Gaussian 09, Revision D.01,
 M. J. Frisch, G. W. Trucks, H. B. Schlegel, G. E. Scuseria, 
 M. A. Robb, J. R. Cheeseman, G. Scalmani, V. Barone, B. Mennucci, 
 G. A. Petersson, H. Nakatsuji, M. Caricato, X. Li, H. P. Hratchian, 
 A. F. Izmaylov, J. Bloino, G. Zheng, J. L. Sonnenberg, M. Hada, 
 M. Ehara, K. Toyota, R. Fukuda, J. Hasegawa, M. Ishida, T. Nakajima, 
 Y. Honda, O. Kitao, H. Nakai, T. Vreven, J. A. Montgomery, Jr., 
 J. E. Peralta, F. Ogliaro, M. Bearpark, J. J. Heyd, E. Brothers, 
 K. N. Kudin, V. N. Staroverov, T. Keith, R. Kobayashi, J. Normand, 
 K. Raghavachari, A. Rendell, J. C. Burant, S. S. Iyengar, J. Tomasi, 
 M. Cossi, N. Rega, J. M. Millam, M. Klene, J. E. Knox, J. B. Cross, 
 V. Bakken, C. Adamo, J. Jaramillo, R. Gomperts, R. E. Stratmann, 
 O. Yazyev, A. J. Austin, R. Cammi, C. Pomelli, J. W. Ochterski, 
 R. L. Martin, K. Morokuma, V. G. Zakrzewski, G. A. Voth, 
 P. Salvador, J. J. Dannenberg, S. Dapprich, A. D. Daniels, 
 O. Farkas, J. B. Foresman, J. V. Ortiz, J. Cioslowski, 
 and D. J. Fox, Gaussian, Inc., Wallingford CT, 2013.
 
 ******************************************
 Gaussian 09:  ES64L-G09RevD.01 24-Apr-2013
                18-Mar-2016 
 ******************************************
 %chk=claisen_ts.chk
 %nprocshared=16
 Will use up to   16 processors via shared memory.
 %mem=16GB
 ---------------------
 # B3LYP/6-31G(d) freq
 ---------------------
 1/10=4,30=1,38=1/1,3;
 2/12=2,17=6,18=5,40=1/2;
 3/5=1,6=6,7=1,11=2,16=1,25=1,30=1,71=2,74=-5,140=1/1,2,3;
 4//1;
 5/5=2,38=5,98=1/2;
 8/6=4,10=90,11=11/1;
 11/6=1,8=1,9=11,15=111,16=1/1,2,10;
 10/6=1/2;
 6/7=2,8=2,9=2,10=2,18=1,28=1/1;
 7/8=1,10=1,25=1/1,2,3,16;
 1/10=4,30=1/3;
 99//99;
 --------------------
 transition structure
 --------------------
 Symbolic Z-matrix:
 Charge =  0 Multiplicity = 1
 6                    -1.46631   0.78417  -0.28998 
 6                    -1.29106  -0.47206   0.26184 
 8                    -0.51103  -1.35846  -0.25222 
 6                     1.28557  -0.90028   0.18203 
 6                     1.3747    0.41271  -0.3018 
 6                     0.66868   1.4253    0.32224 
 1                    -2.1459    1.4924    0.17879 
 1                    -1.2254    0.95369  -1.33299 
 1                    -1.67666  -0.64615   1.28181 
 1                     1.7664   -1.7119   -0.35332 
 1                     1.17354  -1.06949   1.24882 
 1                     1.6925    0.55704  -1.33268 
 1                     0.62902   2.42495  -0.1017 
 1                     0.4452    1.36818   1.38306 
 

 GradGradGradGradGradGradGradGradGradGradGradGradGradGradGradGradGradGrad
 Berny optimization.
 Initialization pass.
 Trust Radius=3.00D-01 FncErr=1.00D-07 GrdErr=1.00D-07
 Number of steps in this run=      2 maximum allowed number of steps=      2.
 GradGradGradGradGradGradGradGradGradGradGradGradGradGradGradGradGradGrad

                          Input orientation:                          
 ---------------------------------------------------------------------
 Center     Atomic      Atomic             Coordinates (Angstroms)
 Number     Number       Type             X           Y           Z
 ---------------------------------------------------------------------
      1          6           0       -1.466310    0.784166   -0.289984
      2          6           0       -1.291056   -0.472057    0.261839
      3          8           0       -0.511025   -1.358456   -0.252221
      4          6           0        1.285571   -0.900283    0.182034
      5          6           0        1.374702    0.412705   -0.301796
      6          6           0        0.668677    1.425296    0.322236
      7          1           0       -2.145898    1.492395    0.178794
      8          1           0       -1.225401    0.953688   -1.332994
      9          1           0       -1.676662   -0.646153    1.281812
     10          1           0        1.766397   -1.711903   -0.353320
     11          1           0        1.173541   -1.069494    1.248816
     12          1           0        1.692496    0.557036   -1.332675
     13          1           0        0.629024    2.424946   -0.101698
     14          1           0        0.445203    1.368176    1.383056
 ---------------------------------------------------------------------
                    Distance matrix (angstroms):
                    1          2          3          4          5
     1  C    0.000000
     2  C    1.383228   0.000000
     3  O    2.346236   1.287792   0.000000
     4  C    3.260831   2.613188   1.904273   0.000000
     5  C    2.865218   2.864743   2.587554   1.402132   0.000000
     6  C    2.311716   2.728397   3.077495   2.410090   1.383195
     7  H    1.087741   2.143997   3.314504   4.183288   3.713667
     8  H    1.083810   2.140222   2.650361   3.469510   2.848959
     9  H    2.135557   1.104240   2.054104   3.170003   3.597196
    10  H    4.084699   3.356137   2.306902   1.084677   2.161027
    11  H    3.573902   2.721267   2.274725   1.085913   2.154478
    12  H    3.334194   3.535971   3.113197   2.140960   1.088364
    13  H    2.667965   3.494495   3.954301   3.401280   2.155270
    14  H    2.606533   2.767342   3.320094   2.700848   2.148399
                    6          7          8          9         10
     6  C    0.000000
     7  H    2.819026   0.000000
     8  H    2.559244   1.850141   0.000000
     9  H    3.272965   2.451575   3.098441   0.000000
    10  H    3.391664   5.084951   4.125044   3.957794   0.000000
    11  H    2.708766   4.327459   4.063734   2.881660   1.825105
    12  H    2.130918   4.229977   2.944734   4.431076   2.472384
    13  H    1.086551   2.940836   2.668254   4.081904   4.297726
    14  H    1.085607   2.859979   3.215532   2.927470   3.774578
                   11         12         13         14
    11  H    0.000000
    12  H    3.094998   0.000000
    13  H    3.785696   2.476967   0.000000
    14  H    2.547691   3.096592   1.831679   0.000000
 Stoichiometry    C5H8O
 Framework group  C1[X(C5H8O)]
 Deg. of freedom    36
 Full point group                 C1      NOp   1
 Largest Abelian subgroup         C1      NOp   1
 Largest concise Abelian subgroup C1      NOp   1
                         Standard orientation:                         
 ---------------------------------------------------------------------
 Center     Atomic      Atomic             Coordinates (Angstroms)
 Number     Number       Type             X           Y           Z
 ---------------------------------------------------------------------
      1          6           0       -1.466309    0.784167   -0.289984
      2          6           0       -1.291057   -0.472056    0.261839
      3          8           0       -0.511026   -1.358456   -0.252221
      4          6           0        1.285570   -0.900284    0.182034
      5          6           0        1.374702    0.412704   -0.301796
      6          6           0        0.668678    1.425295    0.322236
      7          1           0       -2.145897    1.492397    0.178794
      8          1           0       -1.225400    0.953689   -1.332994
      9          1           0       -1.676663   -0.646152    1.281812
     10          1           0        1.766395   -1.711905   -0.353320
     11          1           0        1.173540   -1.069495    1.248816
     12          1           0        1.692496    0.557034   -1.332675
     13          1           0        0.629026    2.424945   -0.101698
     14          1           0        0.445204    1.368175    1.383056
 ---------------------------------------------------------------------
 Rotational constants (GHZ):      4.8116479      3.8839112      2.4495412
 Standard basis: 6-31G(d) (6D, 7F)
 There are   106 symmetry adapted cartesian basis functions of A   symmetry.
 There are   106 symmetry adapted basis functions of A   symmetry.
   106 basis functions,   200 primitive gaussians,   106 cartesian basis functions
    23 alpha electrons       23 beta electrons
       nuclear repulsion energy       229.7151961968 Hartrees.
 NAtoms=   14 NActive=   14 NUniq=   14 SFac= 1.00D+00 NAtFMM=   60 NAOKFM=F Big=F
 Integral buffers will be    131072 words long.
 Raffenetti 2 integral format.
 Two-electron integral symmetry is turned on.
 One-electron integrals computed using PRISM.
 NBasis=   106 RedAO= T EigKep=  4.22D-03  NBF=   106
 NBsUse=   106 1.00D-06 EigRej= -1.00D+00 NBFU=   106
 ExpMin= 1.61D-01 ExpMax= 5.48D+03 ExpMxC= 8.25D+02 IAcc=1 IRadAn=         1 AccDes= 0.00D+00
 Harris functional with IExCor=  402 and IRadAn=       1 diagonalized for initial guess.
 HarFok:  IExCor=  402 AccDes= 0.00D+00 IRadAn=         1 IDoV= 1 UseB2=F ITyADJ=14
 ICtDFT=  3500011 ScaDFX=  1.000000  1.000000  1.000000  1.000000
 FoFCou: FMM=F IPFlag=           0 FMFlag=      100000 FMFlg1=           0
         NFxFlg=           0 DoJE=T BraDBF=F KetDBF=T FulRan=T
         wScrn=  0.000000 ICntrl=     500 IOpCl=  0 I1Cent=   200000004 NGrid=           0
         NMat0=    1 NMatS0=      1 NMatT0=    0 NMatD0=    1 NMtDS0=    0 NMtDT0=    0
 Petite list used in FoFCou.
 Keep R1 ints in memory in canonical form, NReq=17065294.
 Requested convergence on RMS density matrix=1.00D-08 within 128 cycles.
 Requested convergence on MAX density matrix=1.00D-06.
 Requested convergence on             energy=1.00D-06.
 No special actions if energy rises.
 Integral accuracy reduced to 1.0D-05 until final iterations.
 Initial convergence to 1.0D-05 achieved.  Increase integral accuracy.
 SCF Done:  E(RB3LYP) =  -270.461127953     A.U. after   14 cycles
            NFock= 14  Conv=0.80D-08     -V/T= 2.0096
 DoSCS=F DFT=T ScalE2(SS,OS)=  1.000000  1.000000
 Range of M.O.s used for correlation:     1   106
 NBasis=   106 NAE=    23 NBE=    23 NFC=     0 NFV=     0
 NROrb=    106 NOA=    23 NOB=    23 NVA=    83 NVB=    83
 Symmetrizing basis deriv contribution to polar:
 IMax=3 JMax=2 DiffMx= 0.00D+00
 G2DrvN: will do    15 centers at a time, making    1 passes.
 Calling FoFCou, ICntrl=  3107 FMM=F I1Cent=   0 AccDes= 0.00D+00.
 End of G2Drv F.D. properties file   721 does not exist.
 End of G2Drv F.D. properties file   722 does not exist.
 End of G2Drv F.D. properties file   788 does not exist.
          IDoAtm=11111111111111
          Differentiating once with respect to electric field.
                with respect to dipole field.
          Differentiating once with respect to nuclear coordinates.
 Keep R1 ints in memory in canonical form, NReq=17013215.
          There are    45 degrees of freedom in the 1st order CPHF.  IDoFFX=6 NUNeed=     3.
     42 vectors produced by pass  0 Test12= 4.24D-15 2.22D-09 XBig12= 1.06D+02 6.98D+00.
 AX will form    42 AO Fock derivatives at one time.
     42 vectors produced by pass  1 Test12= 4.24D-15 2.22D-09 XBig12= 1.91D+01 6.92D-01.
     42 vectors produced by pass  2 Test12= 4.24D-15 2.22D-09 XBig12= 1.52D-01 5.52D-02.
     42 vectors produced by pass  3 Test12= 4.24D-15 2.22D-09 XBig12= 3.45D-04 2.49D-03.
     42 vectors produced by pass  4 Test12= 4.24D-15 2.22D-09 XBig12= 2.57D-07 7.30D-05.
     21 vectors produced by pass  5 Test12= 4.24D-15 2.22D-09 XBig12= 1.60D-10 1.59D-06.
      3 vectors produced by pass  6 Test12= 4.24D-15 2.22D-09 XBig12= 8.19D-14 3.95D-08.
 InvSVY:  IOpt=1 It=  1 EMax= 7.11D-15
 Solved reduced A of dimension   234 with    45 vectors.
 Isotropic polarizability for W=    0.000000       61.30 Bohr**3.
 End of Minotr F.D. properties file   721 does not exist.
 End of Minotr F.D. properties file   722 does not exist.
 End of Minotr F.D. properties file   788 does not exist.

 **********************************************************************

            Population analysis using the SCF density.

 **********************************************************************

 Orbital symmetries:
       Occupied  (A) (A) (A) (A) (A) (A) (A) (A) (A) (A) (A) (A)
                 (A) (A) (A) (A) (A) (A) (A) (A) (A) (A) (A)
       Virtual   (A) (A) (A) (A) (A) (A) (A) (A) (A) (A) (A) (A)
                 (A) (A) (A) (A) (A) (A) (A) (A) (A) (A) (A) (A)
                 (A) (A) (A) (A) (A) (A) (A) (A) (A) (A) (A) (A)
                 (A) (A) (A) (A) (A) (A) (A) (A) (A) (A) (A) (A)
                 (A) (A) (A) (A) (A) (A) (A) (A) (A) (A) (A) (A)
                 (A) (A) (A) (A) (A) (A) (A) (A) (A) (A) (A) (A)
                 (A) (A) (A) (A) (A) (A) (A) (A) (A) (A) (A)
 The electronic state is 1-A.
 Alpha  occ. eigenvalues --  -19.13400 -10.22917 -10.22252 -10.21110 -10.18645
 Alpha  occ. eigenvalues --  -10.18425  -1.00187  -0.79743  -0.73272  -0.67405
 Alpha  occ. eigenvalues --   -0.56854  -0.55476  -0.48640  -0.46006  -0.44252
 Alpha  occ. eigenvalues --   -0.43137  -0.39563  -0.38592  -0.37046  -0.36558
 Alpha  occ. eigenvalues --   -0.27175  -0.25233  -0.22261
 Alpha virt. eigenvalues --   -0.02719   0.01061   0.09107   0.10847   0.11810
 Alpha virt. eigenvalues --    0.13458   0.14677   0.16843   0.18231   0.18857
 Alpha virt. eigenvalues --    0.20706   0.30027   0.30452   0.33869   0.35125
 Alpha virt. eigenvalues --    0.49192   0.51011   0.52411   0.55758   0.56819
 Alpha virt. eigenvalues --    0.58848   0.59937   0.62872   0.64196   0.66622
 Alpha virt. eigenvalues --    0.67142   0.74387   0.77633   0.81493   0.83069
 Alpha virt. eigenvalues --    0.84561   0.85744   0.88128   0.88506   0.91466
 Alpha virt. eigenvalues --    0.94124   0.94686   0.99654   1.02710   1.09300
 Alpha virt. eigenvalues --    1.15043   1.18829   1.22141   1.27074   1.31806
 Alpha virt. eigenvalues --    1.38853   1.46564   1.49696   1.53192   1.58743
 Alpha virt. eigenvalues --    1.65590   1.68331   1.71743   1.75539   1.80586
 Alpha virt. eigenvalues --    1.87035   1.91146   1.99463   1.99713   2.01714
 Alpha virt. eigenvalues --    2.06038   2.07543   2.19074   2.21622   2.26147
 Alpha virt. eigenvalues --    2.26607   2.31174   2.34894   2.40608   2.50831
 Alpha virt. eigenvalues --    2.58560   2.62393   2.67762   2.77421   2.85732
 Alpha virt. eigenvalues --    2.86914   2.99214   3.93081   4.16902   4.22796
 Alpha virt. eigenvalues --    4.29458   4.39743   4.43905
          Condensed to atoms (all electrons):
               1          2          3          4          5          6
     1  C    5.281402   0.510536  -0.062730  -0.018889  -0.028029   0.090577
     2  C    0.510536   4.635257   0.408843  -0.032284  -0.025684  -0.006759
     3  O   -0.062730   0.408843   8.156668   0.087136  -0.035673  -0.017600
     4  C   -0.018889  -0.032284   0.087136   5.003507   0.525526  -0.040280
     5  C   -0.028029  -0.025684  -0.035673   0.525526   4.801590   0.561708
     6  C    0.090577  -0.006759  -0.017600  -0.040280   0.561708   5.069402
     7  H    0.332208  -0.016458   0.003484   0.000398   0.001322  -0.003443
     8  H    0.359073  -0.025454   0.000847  -0.000470  -0.002686  -0.007650
     9  H   -0.102815   0.358178  -0.055079  -0.002949   0.000172  -0.002948
    10  H    0.000195   0.001413  -0.009966   0.369734  -0.026649   0.005113
    11  H   -0.000234  -0.003542  -0.018820   0.368047  -0.037954  -0.010049
    12  H   -0.000761  -0.000175   0.000368  -0.048159   0.378068  -0.051142
    13  H   -0.003260   0.000324   0.000188   0.005055  -0.027187   0.365278
    14  H   -0.010593  -0.003680  -0.000218  -0.007877  -0.035053   0.371337
               7          8          9         10         11         12
     1  C    0.332208   0.359073  -0.102815   0.000195  -0.000234  -0.000761
     2  C   -0.016458  -0.025454   0.358178   0.001413  -0.003542  -0.000175
     3  O    0.003484   0.000847  -0.055079  -0.009966  -0.018820   0.000368
     4  C    0.000398  -0.000470  -0.002949   0.369734   0.368047  -0.048159
     5  C    0.001322  -0.002686   0.000172  -0.026649  -0.037954   0.378068
     6  C   -0.003443  -0.007650  -0.002948   0.005113  -0.010049  -0.051142
     7  H    0.576855  -0.035762   0.001439   0.000001   0.000016  -0.000001
     8  H   -0.035762   0.543008   0.006084  -0.000043   0.000111   0.001155
     9  H    0.001439   0.006084   0.701585  -0.000066   0.002901   0.000036
    10  H    0.000001  -0.000043  -0.000066   0.532656  -0.036906  -0.006207
    11  H    0.000016   0.000111   0.002901  -0.036906   0.560451   0.005235
    12  H   -0.000001   0.001155   0.000036  -0.006207   0.005235   0.589981
    13  H   -0.000105  -0.001213  -0.000019  -0.000183  -0.000031  -0.006288
    14  H   -0.000136   0.001016   0.001615  -0.000014   0.005536   0.005259
              13         14
     1  C   -0.003260  -0.010593
     2  C    0.000324  -0.003680
     3  O    0.000188  -0.000218
     4  C    0.005055  -0.007877
     5  C   -0.027187  -0.035053
     6  C    0.365278   0.371337
     7  H   -0.000105  -0.000136
     8  H   -0.001213   0.001016
     9  H   -0.000019   0.001615
    10  H   -0.000183  -0.000014
    11  H   -0.000031   0.005536
    12  H   -0.006288   0.005259
    13  H    0.546005  -0.039968
    14  H   -0.039968   0.550842
 Mulliken charges:
               1
     1  C   -0.346682
     2  C    0.199483
     3  O   -0.457448
     4  C   -0.208495
     5  C   -0.049471
     6  C   -0.323544
     7  H    0.140182
     8  H    0.161982
     9  H    0.091865
    10  H    0.170923
    11  H    0.165237
    12  H    0.132631
    13  H    0.161403
    14  H    0.161934
 Sum of Mulliken charges =   0.00000
 Mulliken charges with hydrogens summed into heavy atoms:
               1
     1  C   -0.044518
     2  C    0.291348
     3  O   -0.457448
     4  C    0.127665
     5  C    0.083161
     6  C   -0.000207
 APT charges:
               1
     1  C   -0.116386
     2  C    0.266089
     3  O   -0.423314
     4  C    0.246403
     5  C   -0.269120
     6  C    0.293542
     7  H    0.013739
     8  H    0.017636
     9  H   -0.056049
    10  H    0.016340
    11  H   -0.003660
    12  H    0.021096
    13  H    0.012478
    14  H   -0.018792
 Sum of APT charges =   0.00000
 APT charges with hydrogens summed into heavy atoms:
               1
     1  C   -0.085012
     2  C    0.210039
     3  O   -0.423314
     4  C    0.259083
     5  C   -0.248024
     6  C    0.287227
 Electronic spatial extent (au):  <R**2>=            548.3713
 Charge=              0.0000 electrons
 Dipole moment (field-independent basis, Debye):
    X=              0.7197    Y=              1.8014    Z=              0.8009  Tot=              2.0987
 Quadrupole moment (field-independent basis, Debye-Ang):
   XX=            -36.6359   YY=            -37.0218   ZZ=            -34.7719
   XY=             -3.1070   XZ=             -1.5681   YZ=             -1.4287
 Traceless Quadrupole moment (field-independent basis, Debye-Ang):
   XX=             -0.4927   YY=             -0.8786   ZZ=              1.3713
   XY=             -3.1070   XZ=             -1.5681   YZ=             -1.4287
 Octapole moment (field-independent basis, Debye-Ang**2):
  XXX=             -4.4802  YYY=              2.4551  ZZZ=             -0.3663  XYY=              3.2432
  XXY=             -4.2959  XXZ=             -0.7838  XZZ=              0.6823  YZZ=             -0.9199
  YYZ=              0.1002  XYZ=              0.2923
 Hexadecapole moment (field-independent basis, Debye-Ang**3):
 XXXX=           -373.9325 YYYY=           -276.3889 ZZZZ=            -81.9067 XXXY=             -9.1039
 XXXZ=             -8.3057 YYYX=             -5.8330 YYYZ=             -0.3662 ZZZX=             -0.2043
 ZZZY=             -0.9905 XXYY=           -101.7388 XXZZ=            -71.9658 YYZZ=            -60.0016
 XXYZ=              0.0038 YYXZ=             -2.7414 ZZXY=             -0.2211
 N-N= 2.297151961968D+02 E-N=-1.088634779794D+03  KE= 2.678972958313D+02
  Exact polarizability:  71.046  -5.602  65.284  -4.077  -2.513  47.560
 Approx polarizability: 120.555  -8.604 117.544  -5.438  -0.911  70.024
 Calling FoFJK, ICntrl=    100127 FMM=F ISym2X=0 I1Cent= 0 IOpClX= 0 NMat=1 NMatS=1 NMatT=0.
 Full mass-weighted force constant matrix:
 Low frequencies --- -482.7284  -10.0788    0.0003    0.0012    0.0016   13.8580
 Low frequencies ---   17.7154  170.6716  269.5691
 ******    1 imaginary frequencies (negative Signs) ****** 
 Diagonal vibrational polarizability:
       11.6497938       6.7476251       3.0323258
 Harmonic frequencies (cm**-1), IR intensities (KM/Mole), Raman scattering
 activities (A**4/AMU), depolarization ratios for plane and unpolarized
 incident light, reduced masses (AMU), force constants (mDyne/A),
 and normal coordinates:
                      1                      2                      3
                      A                      A                      A
 Frequencies --   -482.7269               170.6655               269.5624
 Red. masses --      8.9428                 2.9076                 6.5663
 Frc consts  --      1.2278                 0.0499                 0.2811
 IR Inten    --     18.5513                 3.0551                19.9600
  Atom  AN      X      Y      Z        X      Y      Z        X      Y      Z
     1   6    -0.34  -0.17  -0.07     0.05  -0.02  -0.18     0.34   0.08   0.05
     2   6     0.00   0.07   0.01    -0.03   0.06   0.01     0.17   0.06   0.03
     3   8     0.35   0.08   0.05    -0.03  -0.05   0.20     0.24   0.07   0.03
     4   6    -0.46  -0.13  -0.07     0.04   0.00  -0.19    -0.31  -0.09  -0.06
     5   6    -0.02   0.05   0.00    -0.01   0.07  -0.02    -0.16  -0.04   0.01
     6   6     0.37   0.09   0.07    -0.01  -0.04   0.16    -0.34  -0.10  -0.06
     7   1    -0.34  -0.18  -0.07     0.02   0.07  -0.36     0.36   0.12   0.03
     8   1     0.07   0.05   0.07     0.22  -0.15  -0.17     0.21   0.01   0.01
     9   1     0.03  -0.06  -0.03    -0.14   0.22   0.00     0.26   0.08   0.05
    10   1    -0.29  -0.06  -0.02    -0.05   0.08  -0.39    -0.18  -0.03  -0.04
    11   1     0.04  -0.01   0.01     0.25  -0.15  -0.19    -0.09  -0.10  -0.03
    12   1     0.02   0.01   0.01    -0.08   0.23  -0.01    -0.19  -0.04   0.00
    13   1     0.24   0.06   0.03    -0.04   0.03   0.34    -0.30  -0.09  -0.05
    14   1    -0.04  -0.04  -0.03    -0.05  -0.25   0.14    -0.24  -0.02  -0.04
                      4                      5                      6
                      A                      A                      A
 Frequencies --    310.7237               379.8006               427.6113
 Red. masses --      3.2400                 2.2235                 2.2740
 Frc consts  --      0.1843                 0.1890                 0.2450
 IR Inten    --      2.2698                 1.1111                 6.4845
  Atom  AN      X      Y      Z        X      Y      Z        X      Y      Z
     1   6    -0.22   0.01  -0.09     0.03  -0.07  -0.02    -0.04   0.06   0.08
     2   6     0.12   0.14   0.08     0.07  -0.01   0.09    -0.13  -0.03  -0.06
     3   8     0.03   0.15  -0.03    -0.10  -0.07  -0.05     0.07   0.05   0.10
     4   6     0.13  -0.09   0.01    -0.09  -0.03  -0.09     0.04  -0.07  -0.08
     5   6     0.05  -0.07   0.05     0.09   0.06   0.15     0.14   0.00   0.08
     6   6    -0.12  -0.15  -0.01    -0.01   0.13  -0.05    -0.08  -0.02  -0.11
     7   1    -0.17   0.02  -0.03     0.14   0.04  -0.02    -0.13  -0.05   0.12
     8   1    -0.40  -0.10  -0.15    -0.10  -0.26  -0.08     0.04   0.26   0.13
     9   1     0.47   0.30   0.24     0.33   0.11   0.21    -0.50  -0.20  -0.23
    10   1     0.12  -0.06  -0.05    -0.03   0.08  -0.21     0.01   0.02  -0.24
    11   1     0.10  -0.17  -0.01    -0.18  -0.27  -0.14     0.11  -0.26  -0.10
    12   1     0.13  -0.03   0.08     0.39   0.14   0.25     0.35   0.05   0.15
    13   1    -0.14  -0.14   0.03     0.16   0.08  -0.18    -0.01  -0.06  -0.22
    14   1    -0.21  -0.20  -0.03    -0.25   0.29  -0.09    -0.22   0.11  -0.14
                      7                      8                      9
                      A                      A                      A
 Frequencies --    465.3777               530.5500               736.3262
 Red. masses --      1.9501                 2.3181                 1.3822
 Frc consts  --      0.2488                 0.3845                 0.4415
 IR Inten    --      0.4189                12.8795                25.6022
  Atom  AN      X      Y      Z        X      Y      Z        X      Y      Z
     1   6    -0.01   0.02  -0.02     0.06  -0.11   0.00    -0.02  -0.01  -0.01
     2   6     0.03   0.01  -0.03    -0.12  -0.05   0.15     0.01   0.01  -0.02
     3   8     0.02   0.00  -0.01     0.00   0.19  -0.08    -0.02  -0.02  -0.01
     4   6     0.10  -0.11   0.00     0.03   0.00   0.00    -0.04   0.03   0.00
     5   6    -0.18  -0.06   0.09     0.02  -0.01   0.00     0.15   0.04   0.05
     6   6     0.03   0.12   0.02     0.01  -0.01   0.00     0.00  -0.04   0.02
     7   1    -0.07  -0.03  -0.04    -0.01   0.13  -0.48     0.04   0.00   0.04
     8   1     0.04   0.07   0.00     0.38  -0.58   0.00    -0.01   0.03  -0.01
     9   1    -0.01   0.01  -0.05    -0.23  -0.27   0.07     0.03   0.04   0.00
    10   1     0.05   0.06  -0.30    -0.05  -0.01  -0.06    -0.30  -0.06  -0.09
    11   1     0.31  -0.37  -0.01     0.06  -0.03   0.00     0.07   0.01   0.01
    12   1    -0.47  -0.14  -0.01    -0.08  -0.04  -0.03    -0.43  -0.09  -0.15
    13   1     0.06  -0.01  -0.31    -0.05  -0.03  -0.06    -0.59  -0.19  -0.28
    14   1     0.12   0.47   0.06     0.09   0.04   0.02     0.34   0.20   0.12
                     10                     11                     12
                      A                      A                      A
 Frequencies --    808.2321               874.8347               896.9917
 Red. masses --      1.2286                 1.1485                 1.2489
 Frc consts  --      0.4729                 0.5179                 0.5920
 IR Inten    --      4.2738                37.4550                 5.3630
  Atom  AN      X      Y      Z        X      Y      Z        X      Y      Z
     1   6     0.01  -0.03  -0.03    -0.05  -0.03  -0.01    -0.03  -0.02   0.01
     2   6    -0.10  -0.05  -0.03    -0.01   0.03   0.02     0.05   0.04   0.03
     3   8     0.03   0.03   0.01     0.00  -0.01   0.00    -0.03  -0.04  -0.04
     4   6     0.01   0.01   0.03     0.02  -0.02  -0.04     0.00   0.01   0.08
     5   6     0.00   0.01   0.01    -0.05   0.00  -0.01     0.00   0.03   0.00
     6   6     0.02   0.01   0.00     0.03  -0.02   0.03     0.02   0.02  -0.05
     7   1     0.64   0.31   0.36     0.41   0.33   0.12     0.06   0.08  -0.01
     8   1    -0.40  -0.09  -0.14     0.37   0.13   0.12     0.45   0.16   0.16
     9   1     0.11   0.06   0.07    -0.06   0.01  -0.01    -0.05  -0.04  -0.03
    10   1    -0.14   0.03  -0.12     0.39   0.02   0.21    -0.23   0.07  -0.21
    11   1     0.23  -0.04   0.05    -0.19   0.08  -0.04     0.44  -0.12   0.11
    12   1    -0.10  -0.04  -0.03     0.15   0.15   0.07    -0.04  -0.12  -0.04
    13   1     0.07   0.04   0.07    -0.35  -0.16  -0.25    -0.17   0.09   0.14
    14   1    -0.12  -0.10  -0.04    -0.09   0.11   0.01    -0.42  -0.34  -0.17
                     13                     14                     15
                      A                      A                      A
 Frequencies --    962.0246               995.3749              1001.4186
 Red. masses --      1.0717                 1.4082                 1.4410
 Frc consts  --      0.5844                 0.8220                 0.8514
 IR Inten    --      0.3446                21.2280                 5.2897
  Atom  AN      X      Y      Z        X      Y      Z        X      Y      Z
     1   6     0.00   0.00   0.00    -0.04  -0.05  -0.05     0.09  -0.07  -0.03
     2   6     0.01   0.00   0.00     0.13   0.05   0.07     0.05   0.03   0.02
     3   8    -0.01   0.00  -0.01    -0.02   0.01   0.00    -0.04   0.07   0.01
     4   6     0.02  -0.01  -0.04    -0.01   0.00  -0.02     0.01   0.00   0.01
     5   6     0.02   0.00   0.00     0.04   0.01   0.03    -0.06  -0.02  -0.03
     6   6    -0.01  -0.03   0.04    -0.05   0.00  -0.02     0.07   0.01   0.04
     7   1    -0.02  -0.02   0.00     0.25   0.05   0.21    -0.07  -0.43   0.26
     8   1     0.05   0.02   0.02    -0.08   0.05  -0.04    -0.36   0.08  -0.11
     9   1     0.01  -0.01   0.00    -0.58  -0.31  -0.27    -0.33  -0.03  -0.13
    10   1    -0.25  -0.30   0.17     0.08   0.01   0.06    -0.18  -0.06  -0.05
    11   1     0.22   0.44   0.06    -0.21  -0.02  -0.05    -0.03  -0.01   0.00
    12   1    -0.19   0.29  -0.02    -0.32  -0.10  -0.10     0.27   0.09   0.09
    13   1     0.33  -0.13  -0.22     0.35   0.10   0.16    -0.45  -0.09  -0.15
    14   1    -0.44   0.27  -0.04     0.10   0.00   0.01    -0.26  -0.03  -0.04
                     16                     17                     18
                      A                      A                      A
 Frequencies --   1010.8743              1037.7694              1057.3799
 Red. masses --      1.3039                 1.3618                 1.5434
 Frc consts  --      0.7850                 0.8641                 1.0167
 IR Inten    --     11.4526                 1.5865                 1.7966
  Atom  AN      X      Y      Z        X      Y      Z        X      Y      Z
     1   6     0.02   0.09   0.05     0.05  -0.07  -0.03     0.03  -0.01   0.01
     2   6    -0.01   0.03   0.00    -0.07  -0.02   0.00    -0.02   0.02   0.00
     3   8     0.02  -0.05  -0.01    -0.02   0.06   0.01    -0.02   0.00  -0.01
     4   6    -0.01  -0.06  -0.02     0.01  -0.06  -0.03    -0.07   0.13   0.01
     5   6     0.03   0.02   0.01     0.06   0.02   0.03    -0.01  -0.01   0.04
     6   6     0.05   0.05   0.00     0.00   0.05  -0.02     0.06  -0.14   0.00
     7   1    -0.11   0.16  -0.21    -0.07  -0.33   0.19    -0.10  -0.14   0.02
     8   1    -0.36  -0.42  -0.13     0.15   0.35   0.07    -0.07   0.01  -0.02
     9   1    -0.13  -0.17  -0.09     0.19   0.28   0.15    -0.01   0.06   0.01
    10   1     0.33  -0.01   0.19     0.32  -0.05   0.21     0.47   0.57  -0.17
    11   1     0.01   0.04   0.00    -0.21   0.01  -0.05     0.17  -0.09   0.00
    12   1    -0.28  -0.03  -0.10    -0.43  -0.11  -0.15    -0.18  -0.06  -0.02
    13   1    -0.31   0.04   0.04    -0.02   0.13   0.16     0.25  -0.26  -0.29
    14   1    -0.38  -0.17  -0.10    -0.22  -0.15  -0.08    -0.20   0.05  -0.06
                     19                     20                     21
                      A                      A                      A
 Frequencies --   1091.4693              1267.6064              1277.1614
 Red. masses --      1.2106                 1.5958                 2.1995
 Frc consts  --      0.8497                 1.5107                 2.1138
 IR Inten    --      1.8571                10.3745                13.4993
  Atom  AN      X      Y      Z        X      Y      Z        X      Y      Z
     1   6    -0.02   0.02   0.02    -0.01   0.05  -0.05     0.02   0.10  -0.12
     2   6     0.02  -0.03  -0.03     0.02  -0.07   0.05    -0.06  -0.08   0.19
     3   8     0.03   0.01   0.03     0.00   0.01   0.01     0.04  -0.05  -0.05
     4   6     0.06   0.08   0.00    -0.01   0.08  -0.11    -0.02  -0.04   0.08
     5   6    -0.02  -0.02   0.00    -0.01  -0.12   0.08     0.04   0.04  -0.11
     6   6     0.04  -0.02   0.01     0.01   0.05   0.03    -0.01   0.00   0.05
     7   1     0.00   0.12  -0.09    -0.01   0.08  -0.08    -0.08   0.09  -0.18
     8   1     0.09  -0.06   0.03    -0.04   0.27  -0.03    -0.23   0.66  -0.11
     9   1     0.10  -0.03   0.01     0.09  -0.25   0.05    -0.01  -0.27   0.18
    10   1    -0.36  -0.03  -0.18     0.00   0.05  -0.03     0.01   0.02  -0.01
    11   1    -0.70  -0.24  -0.15     0.12   0.49  -0.04    -0.03  -0.37   0.03
    12   1    -0.20  -0.12  -0.07     0.17  -0.68   0.05     0.01   0.18  -0.11
    13   1     0.03  -0.07  -0.09    -0.16   0.06   0.07     0.02  -0.03  -0.04
    14   1    -0.36  -0.04  -0.08    -0.10   0.00   0.01    -0.14   0.22   0.04
                     22                     23                     24
                      A                      A                      A
 Frequencies --   1302.0661              1359.7438              1450.1996
 Red. masses --      1.8111                 1.5970                 1.3261
 Frc consts  --      1.8091                 1.7397                 1.6432
 IR Inten    --      0.1308                13.0368                 9.9825
  Atom  AN      X      Y      Z        X      Y      Z        X      Y      Z
     1   6     0.02   0.04  -0.04     0.01  -0.01   0.02     0.02   0.01  -0.02
     2   6    -0.02  -0.02   0.07    -0.08   0.07   0.09    -0.03   0.05   0.00
     3   8     0.02  -0.02  -0.02     0.08  -0.09  -0.09    -0.01  -0.01   0.00
     4   6     0.03   0.02  -0.03     0.04   0.02  -0.02     0.02   0.00  -0.03
     5   6    -0.09   0.01   0.17    -0.01   0.02   0.02    -0.04   0.14   0.01
     6   6     0.07  -0.04  -0.14    -0.02  -0.01   0.01    -0.01  -0.01   0.03
     7   1    -0.06   0.01  -0.08    -0.03  -0.02   0.00    -0.01  -0.12   0.12
     8   1    -0.09   0.22  -0.04    -0.07  -0.03   0.00     0.03  -0.05  -0.02
     9   1     0.00  -0.08   0.07    -0.47   0.75   0.06     0.17  -0.31   0.01
    10   1    -0.14  -0.07  -0.02    -0.12  -0.07  -0.02    -0.04  -0.28   0.31
    11   1    -0.10   0.23  -0.02    -0.08   0.09  -0.03     0.09  -0.24  -0.05
    12   1    -0.21   0.52   0.21     0.08  -0.34   0.00     0.12  -0.45  -0.02
    13   1    -0.07  -0.04  -0.06     0.06  -0.02  -0.03     0.20  -0.20  -0.40
    14   1     0.31  -0.52  -0.12     0.00   0.01   0.01     0.08  -0.33   0.01
                     25                     26                     27
                      A                      A                      A
 Frequencies --   1490.4557              1551.5795              1565.4855
 Red. masses --      1.4079                 1.3748                 1.6972
 Frc consts  --      1.8428                 1.9501                 2.4507
 IR Inten    --      9.4103                 8.0476                 9.7842
  Atom  AN      X      Y      Z        X      Y      Z        X      Y      Z
     1   6     0.00   0.07  -0.07    -0.02   0.05  -0.02    -0.04   0.11  -0.05
     2   6    -0.09   0.10   0.05     0.01  -0.05   0.01     0.05  -0.12   0.03
     3   8     0.04  -0.05  -0.02     0.00   0.00   0.00     0.00   0.02   0.00
     4   6     0.02  -0.01   0.01    -0.02   0.13  -0.05    -0.03  -0.01   0.01
     5   6     0.00  -0.03   0.00    -0.01  -0.07   0.03     0.05  -0.08  -0.04
     6   6     0.00  -0.02  -0.02     0.03  -0.02  -0.03    -0.04   0.11   0.07
     7   1    -0.04  -0.37   0.52    -0.02  -0.07   0.17    -0.03  -0.12   0.32
     8   1     0.28  -0.35  -0.06     0.13  -0.15  -0.02     0.24  -0.28  -0.05
     9   1     0.17  -0.34   0.06    -0.07   0.12   0.02    -0.17   0.25   0.04
    10   1    -0.03   0.11  -0.20    -0.03  -0.27   0.54     0.04   0.10  -0.08
    11   1    -0.13   0.18   0.02     0.27  -0.53  -0.12     0.02   0.03   0.03
    12   1    -0.01   0.04   0.00    -0.04   0.11   0.06    -0.03   0.17  -0.04
    13   1    -0.07   0.08   0.20    -0.12   0.09   0.24     0.12  -0.11  -0.48
    14   1    -0.02   0.21   0.00    -0.04   0.19  -0.03     0.05  -0.52   0.05
                     28                     29                     30
                      A                      A                      A
 Frequencies --   1638.9061              2992.2704              3167.6010
 Red. masses --      3.4304                 1.0848                 1.0606
 Frc consts  --      5.4288                 5.7225                 6.2700
 IR Inten    --     39.8716                98.5970                 6.2110
  Atom  AN      X      Y      Z        X      Y      Z        X      Y      Z
     1   6    -0.03   0.14  -0.05     0.00   0.00   0.00    -0.03   0.06  -0.02
     2   6     0.11  -0.23   0.00     0.03   0.02  -0.08     0.00  -0.01   0.01
     3   8    -0.05   0.06   0.02     0.00   0.00   0.00     0.00   0.00   0.00
     4   6     0.00  -0.13   0.02     0.00   0.00   0.00     0.00   0.00   0.00
     5   6    -0.08   0.25   0.03     0.00   0.00   0.00     0.00   0.00  -0.01
     6   6     0.08  -0.15  -0.07     0.00   0.00   0.00     0.00  -0.01  -0.01
     7   1    -0.05  -0.03   0.23     0.04  -0.04  -0.03     0.49  -0.51  -0.35
     8   1     0.17  -0.26  -0.08     0.00   0.00   0.00    -0.13  -0.08   0.51
     9   1    -0.21   0.34   0.04    -0.34  -0.18   0.92     0.01   0.01  -0.04
    10   1     0.03  -0.01  -0.16     0.00   0.00   0.00     0.00  -0.01   0.00
    11   1    -0.07   0.25   0.09     0.00   0.00   0.00     0.00   0.00  -0.02
    12   1     0.08  -0.33   0.00     0.00   0.00   0.00    -0.05  -0.02   0.15
    13   1    -0.07  -0.02   0.28     0.00   0.00   0.00    -0.01   0.18  -0.08
    14   1    -0.07   0.38  -0.08     0.00   0.00   0.00    -0.04  -0.01   0.16
                     31                     32                     33
                      A                      A                      A
 Frequencies --   3169.6779              3173.9322              3177.2376
 Red. masses --      1.0692                 1.0657                 1.0708
 Frc consts  --      6.3290                 6.3253                 6.3691
 IR Inten    --     17.3446                13.5316                 3.9360
  Atom  AN      X      Y      Z        X      Y      Z        X      Y      Z
     1   6     0.01  -0.02   0.00     0.00   0.00   0.00     0.00   0.00   0.00
     2   6     0.00   0.00   0.00     0.00   0.00   0.00     0.00   0.00   0.00
     3   8     0.00   0.00   0.00     0.00   0.00   0.00     0.00   0.00   0.00
     4   6     0.00   0.00   0.01     0.01  -0.04   0.03    -0.01   0.04  -0.03
     5   6     0.02   0.01  -0.05    -0.01   0.00   0.04    -0.01  -0.01   0.04
     6   6     0.01  -0.04  -0.02     0.01  -0.02  -0.02     0.01  -0.03  -0.02
     7   1    -0.15   0.16   0.11    -0.02   0.02   0.01    -0.04   0.04   0.02
     8   1     0.04   0.02  -0.15     0.00   0.00  -0.02     0.01   0.00  -0.03
     9   1     0.00   0.00   0.01     0.00   0.00   0.00     0.00   0.00   0.00
    10   1     0.00   0.00   0.00    -0.20   0.34   0.24     0.16  -0.27  -0.19
    11   1     0.01   0.02  -0.11     0.07   0.08  -0.55    -0.07  -0.09   0.57
    12   1    -0.20  -0.09   0.65     0.15   0.07  -0.48     0.13   0.06  -0.42
    13   1    -0.02   0.47  -0.21    -0.01   0.25  -0.11    -0.01   0.34  -0.15
    14   1    -0.09  -0.03   0.40    -0.08  -0.03   0.35    -0.09  -0.03   0.41
                     34                     35                     36
                      A                      A                      A
 Frequencies --   3252.4652              3262.0676              3265.0681
 Red. masses --      1.1166                 1.1163                 1.1147
 Frc consts  --      6.9592                 6.9984                 7.0015
 IR Inten    --      6.9128                10.5046                 7.6546
  Atom  AN      X      Y      Z        X      Y      Z        X      Y      Z
     1   6     0.00   0.00   0.00     0.00   0.00  -0.01     0.04  -0.02  -0.09
     2   6     0.00   0.00   0.00     0.00   0.00   0.00     0.00   0.00   0.00
     3   8     0.00   0.00   0.00     0.00   0.00   0.00     0.00   0.00   0.00
     4   6     0.00   0.00   0.01     0.04  -0.04  -0.08     0.00   0.00   0.01
     5   6     0.00   0.00  -0.01     0.00   0.00  -0.01     0.00   0.00   0.00
     6   6     0.01   0.06  -0.08     0.00   0.00  -0.01     0.00   0.00   0.00
     7   1     0.02  -0.02  -0.01    -0.02   0.03   0.02    -0.33   0.35   0.23
     8   1     0.01   0.01  -0.03    -0.01  -0.01   0.06    -0.19  -0.14   0.80
     9   1     0.00   0.00   0.00     0.00   0.00   0.00    -0.01  -0.01   0.03
    10   1     0.03  -0.05  -0.03    -0.35   0.61   0.40     0.03  -0.04  -0.03
    11   1     0.00   0.00  -0.03    -0.07  -0.10   0.56     0.00   0.01  -0.04
    12   1    -0.03  -0.01   0.10    -0.03  -0.02   0.10     0.00   0.00   0.00
    13   1     0.03  -0.64   0.27     0.00  -0.04   0.02     0.00  -0.03   0.01
    14   1    -0.15  -0.04   0.68    -0.01   0.00   0.05     0.00   0.00   0.02

 -------------------
 - Thermochemistry -
 -------------------
 Temperature   298.150 Kelvin.  Pressure   1.00000 Atm.
 Atom     1 has atomic number  6 and mass  12.00000
 Atom     2 has atomic number  6 and mass  12.00000
 Atom     3 has atomic number  8 and mass  15.99491
 Atom     4 has atomic number  6 and mass  12.00000
 Atom     5 has atomic number  6 and mass  12.00000
 Atom     6 has atomic number  6 and mass  12.00000
 Atom     7 has atomic number  1 and mass   1.00783
 Atom     8 has atomic number  1 and mass   1.00783
 Atom     9 has atomic number  1 and mass   1.00783
 Atom    10 has atomic number  1 and mass   1.00783
 Atom    11 has atomic number  1 and mass   1.00783
 Atom    12 has atomic number  1 and mass   1.00783
 Atom    13 has atomic number  1 and mass   1.00783
 Atom    14 has atomic number  1 and mass   1.00783
 Molecular mass:    84.05751 amu.
 Principal axes and moments of inertia in atomic units:
                           1         2         3
     Eigenvalues --   375.07757 464.67108 736.76704
           X            0.98340  -0.18070  -0.01644
           Y            0.18036   0.98340  -0.01993
           Z            0.01977   0.01663   0.99967
 This molecule is an asymmetric top.
 Rotational symmetry number  1.
 Rotational temperatures (Kelvin)      0.23092     0.18640     0.11756
 Rotational constants (GHZ):           4.81165     3.88391     2.44954
    1 imaginary frequencies ignored.
 Zero-point vibrational energy     307383.5 (Joules/Mol)
                                   73.46642 (Kcal/Mol)
 Warning -- explicit consideration of   7 degrees of freedom as
           vibrations may cause significant error
 Vibrational temperatures:    245.55   387.84   447.06   546.45   615.24
          (Kelvin)            669.57   763.34  1059.41  1162.86  1258.69
                             1290.57  1384.14  1432.12  1440.82  1454.42
                             1493.12  1521.33  1570.38  1823.80  1837.55
                             1873.38  1956.37  2086.51  2144.43  2232.37
                             2252.38  2358.02  4305.20  4557.47  4560.45
                             4566.57  4571.33  4679.57  4693.38  4697.70
 
 Zero-point correction=                           0.117076 (Hartree/Particle)
 Thermal correction to Energy=                    0.123045
 Thermal correction to Enthalpy=                  0.123989
 Thermal correction to Gibbs Free Energy=         0.088015
 Sum of electronic and zero-point Energies=           -270.344052
 Sum of electronic and thermal Energies=              -270.338083
 Sum of electronic and thermal Enthalpies=            -270.337139
 Sum of electronic and thermal Free Energies=         -270.373113
 
                     E (Thermal)             CV                S
                      KCal/Mol        Cal/Mol-Kelvin    Cal/Mol-Kelvin
 Total                   77.212             22.509             75.713
 Electronic               0.000              0.000              0.000
 Translational            0.889              2.981             39.200
 Rotational               0.889              2.981             26.354
 Vibrational             75.434             16.547             10.158
 Vibration     1          0.626              1.879              2.428
 Vibration     2          0.674              1.729              1.599
 Vibration     3          0.700              1.653              1.358
 Vibration     4          0.750              1.513              1.040
 Vibration     5          0.789              1.410              0.866
 Vibration     6          0.823              1.327              0.751
 Vibration     7          0.886              1.182              0.586
                       Q            Log10(Q)             Ln(Q)
 Total Bot       0.328017D-40        -40.484104        -93.218094
 Total V=0       0.232859D+14         13.367094         30.778871
 Vib (Bot)       0.844172D-53        -53.073569       -122.206409
 Vib (Bot)    1  0.118057D+01          0.072091          0.165995
 Vib (Bot)    2  0.717105D+00         -0.144417         -0.332532
 Vib (Bot)    3  0.608301D+00         -0.215882         -0.497086
 Vib (Bot)    4  0.476120D+00         -0.322283         -0.742084
 Vib (Bot)    5  0.408228D+00         -0.389097         -0.895929
 Vib (Bot)    6  0.363854D+00         -0.439073         -1.011003
 Vib (Bot)    7  0.301286D+00         -0.521022         -1.199697
 Vib (V=0)       0.599279D+01          0.777629          1.790557
 Vib (V=0)    1  0.178208D+01          0.250928          0.577784
 Vib (V=0)    2  0.137421D+01          0.138053          0.317878
 Vib (V=0)    3  0.128742D+01          0.109720          0.252640
 Vib (V=0)    4  0.119043D+01          0.075703          0.174313
 Vib (V=0)    5  0.114548D+01          0.058989          0.135828
 Vib (V=0)    6  0.111838D+01          0.048588          0.111878
 Vib (V=0)    7  0.108376D+01          0.034932          0.080434
 Electronic      0.100000D+01          0.000000          0.000000
 Translational   0.302914D+08          7.481320         17.226376
 Rotational      0.128276D+06          5.108145         11.761938
 ***** Axes restored to original set *****
 -------------------------------------------------------------------
 Center     Atomic                   Forces (Hartrees/Bohr)
 Number     Number              X              Y              Z
 -------------------------------------------------------------------
      1        6           0.000041989    0.000022443    0.000027284
      2        6          -0.000078003   -0.000033368   -0.000002451
      3        8           0.000036362    0.000007180   -0.000016985
      4        6           0.000010320    0.000025079   -0.000003000
      5        6          -0.000005870   -0.000008864    0.000007084
      6        6          -0.000007695   -0.000008705   -0.000004428
      7        1          -0.000007360    0.000003165    0.000003670
      8        1           0.000002257   -0.000001293   -0.000010221
      9        1          -0.000000307    0.000000521   -0.000002041
     10        1           0.000005861   -0.000010479   -0.000007100
     11        1          -0.000002670   -0.000000910    0.000006018
     12        1           0.000000413    0.000000037   -0.000002540
     13        1           0.000000443    0.000005485   -0.000003328
     14        1           0.000004258   -0.000000288    0.000008037
 -------------------------------------------------------------------
 Cartesian Forces:  Max     0.000078003 RMS     0.000017930

 GradGradGradGradGradGradGradGradGradGradGradGradGradGradGradGradGradGrad
 Berny optimization.
 Search for a local minimum.
 Step number   1 out of a maximum of    2
 All quantities printed in internal units (Hartrees-Bohrs-Radians)
 Second derivative matrix not updated -- analytic derivatives used.
 ITU=  0
     Eigenvalues ---   -0.10071   0.00342   0.00803   0.01166   0.01399
     Eigenvalues ---    0.01691   0.01932   0.02882   0.03354   0.03623
     Eigenvalues ---    0.03852   0.04792   0.06010   0.07527   0.07677
     Eigenvalues ---    0.08103   0.08705   0.11841   0.14582   0.14984
     Eigenvalues ---    0.16098   0.16989   0.19460   0.25942   0.29249
     Eigenvalues ---    0.32698   0.44985   0.59454   0.64020   0.86478
     Eigenvalues ---    0.91442   0.94883   1.02010   1.12746   1.15972
     Eigenvalues ---    1.26960
 Eigenvalue     1 is  -1.01D-01 should be greater than     0.000000 Eigenvector:
                          X4        X3        X6        X1        Y1
   1                    0.54219  -0.47233  -0.41540   0.36753   0.20150
                          Y4        X10       X7        Y3        Z1
   1                    0.15611   0.12751   0.12135  -0.11690   0.09523
 Angle between quadratic step and forces=  73.42 degrees.
 Linear search not attempted -- first point.
 TrRot=  0.000029  0.000014 -0.000048  0.000003 -0.000002  0.000003
 Variable       Old X    -DE/DX   Delta X   Delta X   Delta X     New X
                                 (Linear)    (Quad)   (Total)
    X1       -2.77092   0.00004   0.00000   0.00047   0.00049  -2.77043
    Y1        1.48186   0.00002   0.00000   0.00021   0.00021   1.48207
    Z1       -0.54799   0.00003   0.00000   0.00079   0.00074  -0.54726
    X2       -2.43974  -0.00008   0.00000  -0.00035  -0.00032  -2.44006
    Y2       -0.89206  -0.00003   0.00000  -0.00052  -0.00052  -0.89258
    Z2        0.49480   0.00000   0.00000  -0.00032  -0.00037   0.49443
    X3       -0.96570   0.00004   0.00000   0.00027   0.00031  -0.96538
    Y3       -2.56711   0.00001   0.00000   0.00017   0.00018  -2.56693
    Z3       -0.47663  -0.00002   0.00000  -0.00063  -0.00068  -0.47730
    X4        2.42938   0.00001   0.00000  -0.00010  -0.00006   2.42932
    Y4       -1.70129   0.00003   0.00000   0.00016   0.00019  -1.70110
    Z4        0.34399   0.00000   0.00000   0.00039   0.00034   0.34434
    X5        2.59781  -0.00001   0.00000  -0.00007  -0.00004   2.59777
    Y5        0.77990  -0.00001   0.00000  -0.00011  -0.00008   0.77982
    Z5       -0.57031   0.00001   0.00000  -0.00011  -0.00015  -0.57046
    X6        1.26362  -0.00001   0.00000  -0.00004  -0.00003   1.26359
    Y6        2.69342  -0.00001   0.00000   0.00018   0.00020   2.69362
    Z6        0.60894   0.00000   0.00000  -0.00043  -0.00047   0.60846
    X7       -4.05516  -0.00001   0.00000   0.00005   0.00006  -4.05510
    Y7        2.82022   0.00000   0.00000  -0.00023  -0.00024   2.81998
    Z7        0.33787   0.00000   0.00000   0.00093   0.00087   0.33875
    X8       -2.31567   0.00000   0.00000   0.00029   0.00031  -2.31536
    Y8        1.80221   0.00000   0.00000   0.00066   0.00066   1.80287
    Z8       -2.51899  -0.00001   0.00000   0.00080   0.00074  -2.51825
    X9       -3.16843   0.00000   0.00000  -0.00084  -0.00081  -3.16924
    Y9       -1.22105   0.00000   0.00000  -0.00143  -0.00144  -1.22249
    Z9        2.42227   0.00000   0.00000  -0.00067  -0.00073   2.42155
   X10        3.33801   0.00001   0.00000  -0.00005   0.00000   3.33801
   Y10       -3.23503  -0.00001   0.00000  -0.00017  -0.00013  -3.23516
   Z10       -0.66768  -0.00001   0.00000   0.00088   0.00084  -0.66683
   X11        2.21767   0.00000   0.00000  -0.00053  -0.00050   2.21717
   Y11       -2.02105   0.00000   0.00000   0.00062   0.00065  -2.02040
   Z11        2.35992   0.00001   0.00000   0.00044   0.00040   2.36032
   X12        3.19835   0.00000   0.00000  -0.00026  -0.00023   3.19812
   Y12        1.05265   0.00000   0.00000  -0.00059  -0.00056   1.05209
   Z12       -2.51839   0.00000   0.00000  -0.00025  -0.00029  -2.51868
   X13        1.18868   0.00000   0.00000   0.00014   0.00014   1.18882
   Y13        4.58248   0.00001   0.00000   0.00000   0.00003   4.58251
   Z13       -0.19218   0.00000   0.00000  -0.00093  -0.00098  -0.19316
   X14        0.84131   0.00000   0.00000   0.00066   0.00067   0.84198
   Y14        2.58548   0.00000   0.00000   0.00084   0.00086   2.58633
   Z14        2.61360   0.00001   0.00000  -0.00023  -0.00028   2.61332
         Item               Value     Threshold  Converged?
 Maximum Force            0.000078     0.000450     YES
 RMS     Force            0.000018     0.000300     YES
 Maximum Displacement     0.001440     0.001800     YES
 RMS     Displacement     0.000529     0.001200     YES
 Predicted change in Energy=-6.350080D-08
 Optimization completed.
    -- Stationary point found.
 GradGradGradGradGradGradGradGradGradGradGradGradGradGradGradGradGradGrad

 1\1\GINC-VIRGIL\Freq\RB3LYP\6-31G(d)\C5H8O1\RPATON\18-Mar-2016\0\\# B3
 LYP/6-31G(d) freq\\transition structure\\0,1\C,-1.46631,0.784166,-0.28
 9984\C,-1.291056,-0.472057,0.261839\O,-0.511025,-1.358456,-0.252221\C,
 1.285571,-0.900283,0.182034\C,1.374702,0.412705,-0.301796\C,0.668677,1
 .425296,0.322236\H,-2.145898,1.492395,0.178794\H,-1.225401,0.953688,-1
 .332994\H,-1.676662,-0.646153,1.281812\H,1.766397,-1.711903,-0.35332\H
 ,1.173541,-1.069494,1.248816\H,1.692496,0.557036,-1.332675\H,0.629024,
 2.424946,-0.101698\H,0.445203,1.368176,1.383056\\Version=ES64L-G09RevD
 .01\State=1-A\HF=-270.461128\RMSD=7.983e-09\RMSF=1.793e-05\ZeroPoint=0
 .1170762\Thermal=0.1230446\Dipole=0.283165,0.7087325,0.3150875\DipoleD
 eriv=-0.2203982,-0.0576979,-0.1201822,-0.4011081,-0.1411165,0.0532087,
 0.1054017,0.082504,0.0123553,-0.1459567,-0.2378108,-0.169065,0.1409787
 ,0.4603535,0.0308181,-0.506693,-0.1244521,0.4838691,-0.1158903,-0.0822
 317,0.0878493,0.0109293,-0.7315531,-0.1339145,0.1272382,-0.1150904,-0.
 4225,0.1241187,0.1979456,-0.0425868,-0.1957513,0.430399,0.0574233,0.14
 44068,-0.0255964,0.1846908,-0.5275038,-0.015049,0.0029092,0.3594651,-0
 .3358346,-0.0025197,-0.2376001,-0.0443101,0.0559791,0.6112214,-0.03907
 33,-0.0169048,-0.0931359,0.1697515,-0.0657822,-0.0017221,0.099756,0.09
 96524,-0.0069566,0.1265649,0.0361868,0.0757424,0.0335801,-0.0182574,0.
 0593511,-0.0235001,0.0145945,0.0637616,0.0201005,0.0618292,0.0370017,0
 .0385524,0.0121509,0.0227319,0.0244172,-0.0494073,-0.0067251,0.0259859
 ,0.0618654,0.0270319,0.0429056,0.0315227,0.1847388,0.083253,-0.2043284
 ,0.014671,0.082912,0.0158272,0.0445818,0.0003572,-0.0292827,0.0221892,
 -0.041779,0.0339928,0.0334069,-0.0094843,0.0319051,0.0072685,0.0378631
 ,-0.0170349,-0.0106496,0.0330254,-0.0822492,0.1185049,0.0189272,0.0284
 378,0.0183171,0.0324573,0.0197541,0.109671,0.0324404,-0.0876741,0.0681
 14,-0.0426515,0.0025112,-0.0035073,-0.0657783,0.0238328,-0.0112239,0.0
 291713,0.0350974,-0.0103678,0.0115625,0.0194176,-0.0278138,0.0280629,0
 .0380808,-0.00784,-0.0098392,-0.0740724\Polar=71.0459805,-5.6020371,65
 .2840091,-4.0770233,-2.5129505,47.5599684\PG=C01 [X(C5H8O1)]\NImag=1\\
 0.25705678,-0.23007491,0.59966183,-0.16192179,-0.11022057,0.60984932,-
 0.07656178,0.02905976,0.00818469,0.38536877,0.08489313,-0.28912002,0.1
 2578789,-0.17189460,0.62090690,0.00461265,0.14824441,-0.16908357,-0.16
 472155,-0.09863800,0.57828378,0.02129914,0.07754609,-0.00422419,-0.170
 15337,0.09617573,0.09482815,0.16536912,0.02027087,-0.07166135,-0.01297
 006,0.13915825,-0.24134984,-0.10996954,-0.16849674,0.34267992,-0.00963
 912,-0.01499756,0.02378521,0.09050501,-0.09331760,-0.15873200,-0.10268
 931,0.14672479,0.16345721,-0.02212250,-0.04109546,0.00730978,-0.064398
 03,0.08184619,0.01326556,0.08524428,-0.02282316,-0.00916157,0.14670341
 ,-0.01953100,-0.03045864,0.00238464,-0.01838502,0.04823174,0.01412670,
 0.05750403,-0.04121265,-0.01711401,-0.16842249,0.65496507,0.00229953,0
 .00232178,-0.00079117,0.00850703,-0.00026777,0.00167060,-0.00808117,-0
 .00825758,-0.02369709,-0.13633424,-0.03633270,0.62891745,-0.02524692,-
 0.01563950,0.00336173,-0.02043449,0.01182777,0.00285560,-0.00050580,-0
 .01429652,-0.00395659,-0.06552562,-0.01453662,0.02796684,0.27626430,0.
 03739198,0.04181730,-0.00384168,0.02748232,-0.06676882,-0.00686828,-0.
 09076673,0.01202529,0.00843405,0.05269007,-0.29691773,0.09441583,-0.10
 216991,0.65309583,0.00036582,0.00468424,0.00112247,0.00128574,-0.00203
 214,0.00243450,-0.00334434,-0.00538533,0.00082345,0.02372186,0.1048356
 1,-0.14394418,-0.20449141,-0.03484320,0.61884646,0.04689904,0.05212237
 ,-0.00210577,0.01564304,-0.07740371,-0.00538065,-0.06035684,0.02495034
 ,0.01196147,0.04281365,0.04678661,-0.00662745,-0.11538547,0.07797382,0
 .09314637,0.16151212,-0.00444531,-0.01990304,0.00072068,-0.00603052,0.
 00892431,-0.00189121,0.01817104,-0.00647995,-0.00114526,0.00114205,-0.
 05078609,-0.01228219,0.12652134,-0.25703366,-0.10569097,-0.14758652,0.
 67816421,0.00223839,-0.00281183,-0.01641099,-0.00282684,0.00593585,0.0
 0094566,0.01077087,0.00022989,0.00040712,-0.01405324,-0.00364663,0.013
 54625,0.08954691,-0.09221556,-0.17696918,-0.16350257,-0.01222856,0.624
 13085,-0.15100128,0.13007792,0.08663379,-0.00116816,-0.00440801,0.0008
 3449,0.00528337,0.00486085,0.00223780,0.00016892,-0.00115465,0.0008307
 1,-0.00181961,0.00021058,-0.00116851,-0.00202633,0.00298733,0.00269021
 ,0.15355173,0.12099792,-0.16997833,-0.07223236,0.01928998,-0.01059982,
 -0.02007791,0.00326028,-0.00479126,0.00551072,-0.00104680,-0.00047277,
 0.00006105,-0.00037520,0.00016689,-0.00018777,-0.00143305,0.00167075,0
 .00106179,-0.13471698,0.17852932,0.08629335,-0.07467755,-0.10981185,-0
 .01086322,0.00584247,0.00652383,0.00164687,0.00488845,0.00245800,0.000
 60053,0.00009561,0.00025462,-0.00050935,-0.00039245,-0.00049127,-0.001
 80365,0.00162926,0.00130688,-0.09141951,0.08254975,0.10637724,-0.04747
 853,0.00628881,0.06961310,0.00474543,-0.00758540,-0.00049270,-0.007892
 11,0.00082985,-0.00098084,0.00357308,0.00356128,0.00006688,0.00130598,
 -0.00541154,-0.00230306,-0.01050806,0.00127975,-0.00754824,-0.00188462
 ,-0.00481932,0.01657960,0.05389317,0.00322667,-0.05563386,0.04214745,-
 0.00661184,-0.00325946,0.03148500,-0.00592968,0.00343364,-0.00387208,0
 .00242840,0.00219809,0.00021790,0.00220170,-0.00285086,0.00030161,-0.0
 0436972,0.00074915,-0.00303478,0.00275057,0.00523044,-0.01900306,0.003
 83267,0.05423344,0.07389474,0.05090240,-0.32758926,0.00576226,-0.00424
 363,-0.00971995,-0.00379070,-0.00052339,0.00172220,0.00143939,0.001776
 01,0.00015288,0.00133838,-0.00197354,0.00086066,-0.00261522,0.00027987
 ,-0.00216576,0.00072380,0.00301855,-0.00669474,-0.07753628,-0.05160817
 ,0.34159080,0.00658121,0.00119538,-0.00240111,-0.07247350,-0.01301009,
 0.06421691,-0.01276140,0.01010101,0.02925247,0.00374320,0.00196000,0.0
 0147880,0.00159966,-0.00052063,0.00071516,0.00089302,-0.00007224,0.000
 80043,-0.00183085,-0.00206250,-0.00100095,0.00518907,0.00318967,0.0014
 4499,0.06965618,-0.00807384,-0.00182509,0.02945502,-0.01145381,-0.0674
 4401,0.04650200,0.01739224,0.00397043,-0.02931590,-0.00145912,-0.00020
 157,-0.00066607,0.00089481,0.00133209,0.00090772,0.00165776,0.00019739
 ,-0.00019257,-0.00070032,0.00000969,-0.00115537,0.00205992,-0.00389638
 ,0.00299364,-0.00037638,0.06780926,0.00568738,0.00089518,-0.01135277,0
 .06644581,0.05886039,-0.25094851,0.02066737,-0.01534370,-0.01280890,-0
 .00227065,-0.00055835,-0.00063618,0.00034204,0.00070100,0.00110183,0.0
 0061692,-0.00001899,-0.00055110,-0.00155369,-0.00004860,-0.00012129,0.
 00232401,0.00354912,0.00148128,-0.09345172,-0.04836724,0.27302845,0.00
 024898,0.00055293,0.00034231,-0.00239271,-0.00183138,-0.00264840,-0.01
 157912,0.00843832,0.00594383,-0.09327079,0.10445925,0.06989208,0.00743
 513,-0.00576022,-0.00226478,0.00326622,-0.00018931,0.00250599,0.000114
 90,0.00003767,0.00003949,-0.00018824,-0.00010463,-0.00009136,-0.000044
 08,-0.00005118,0.00012618,0.09765155,-0.00029655,0.00033813,0.00002659
 ,-0.00051503,-0.00018627,-0.00018180,-0.00346204,0.00286979,0.00174091
 ,0.09965311,-0.21847246,-0.10760503,0.01505771,-0.01541954,-0.01694176
 ,-0.00055631,-0.00478267,0.00406401,0.00000529,0.00001124,0.00001432,-
 0.00001497,-0.00004472,-0.00005732,-0.00004398,-0.00002305,0.00003934,
 -0.10624683,0.22933397,0.00020240,0.00050212,0.00019267,-0.00096546,-0
 .00090771,-0.00116292,-0.00518075,0.00370620,0.00254186,0.07360785,-0.
 10897079,-0.13200429,-0.00590767,0.00923864,0.00854369,0.00085357,0.00
 207575,0.00016092,0.00007524,0.00006216,0.00001340,-0.00013808,-0.0000
 5850,-0.00005272,-0.00015460,0.00007743,0.00024672,-0.07423093,0.11618
 470,0.13039443,0.00122577,0.00393338,0.00014749,0.00469087,-0.00779704
 ,-0.00500254,-0.02108556,0.00106486,-0.01255550,-0.03360648,0.01079156
 ,0.03630763,0.00369140,-0.00900075,0.00526790,-0.00675157,0.00138412,-
 0.00066029,0.00015616,0.00020052,-0.00001980,-0.00046775,-0.00030463,-
 0.00013718,-0.00022987,0.00029563,0.00081717,0.00210573,-0.00314610,0.
 01360827,0.04405622,0.00039790,0.00100634,-0.00004251,0.00195060,-0.00
 120303,0.00034037,-0.00364326,0.00059686,-0.00247930,0.00250877,-0.062
 16840,0.04013015,-0.00381517,-0.00238015,0.03078061,-0.00288453,0.0018
 1223,0.00074079,0.00002916,0.00001199,-0.00001940,-0.00014872,-0.00004
 672,-0.00008856,-0.00025765,0.00006038,0.00000490,0.00166778,0.0061777
 7,-0.02215912,0.00239574,0.06083531,0.00042782,0.00080501,0.00012610,0
 .00048668,-0.00097771,0.00005844,-0.00389694,-0.00091574,-0.00003898,0
 .03968183,0.04518383,-0.33477178,0.00262309,-0.00120788,-0.00737869,-0
 .00093371,-0.00097516,0.00102058,0.00006917,0.00000213,0.00001597,-0.0
 0004390,-0.00009627,-0.00003424,-0.00059414,0.00001136,0.00003898,0.00
 140196,0.00382982,-0.01030897,-0.03957618,-0.04807654,0.34943577,0.000
 77369,0.00056209,0.00063772,0.00049402,-0.00002193,0.00059764,0.000316
 46,0.00034394,0.00002122,0.00205467,-0.00005404,-0.00033556,-0.0606465
 2,-0.00592155,0.07727645,-0.00286490,-0.00165904,0.01588696,0.00005758
 ,0.00000353,-0.00016277,-0.00022206,-0.00007998,-0.00037547,-0.0002215
 5,-0.00012861,-0.00019944,-0.00299664,-0.00104951,-0.00130054,0.005214
 56,0.00160847,0.00081944,0.05701135,0.00002658,0.00041260,0.00020567,0
 .00039168,-0.00039736,0.00012799,0.00026596,0.00066194,-0.00044387,-0.
 00772792,-0.00294730,0.03198312,-0.00607620,-0.06117200,0.03457968,0.0
 0662207,0.00493471,-0.02586671,-0.00013703,-0.00005218,-0.00004007,0.0
 0012187,0.00010212,0.00000048,-0.00003889,-0.00008633,-0.00004114,-0.0
 0049499,0.00104521,-0.00064368,-0.00015311,-0.00465974,0.00162053,0.00
 415275,0.06389217,0.00013262,0.00033695,-0.00014934,-0.00010869,-0.000
 35252,0.00024243,-0.00026779,0.00011591,0.00052788,0.00265760,0.000430
 21,-0.00926896,0.08601391,0.03684867,-0.30325001,0.00264641,0.00273113
 ,-0.01220891,-0.00003971,-0.00003596,0.00008451,0.00022483,-0.00003397
 ,0.00013384,-0.00007354,-0.00008235,-0.00000934,-0.00141499,-0.0002791
 1,0.00054955,0.00196597,0.00215725,0.00129165,-0.09360758,-0.04002967,
 0.32038098,-0.00461662,-0.00771261,0.00188714,-0.00012599,0.00293809,-
 0.00050322,0.00226644,-0.00166537,-0.00052402,0.00129945,0.00282751,0.
 00486925,0.00419668,0.01877601,-0.00857295,-0.03413825,0.00801225,0.00
 467264,0.00012821,0.00028546,0.00031149,0.00080131,0.00005636,0.000041
 36,-0.00022648,0.00017357,-0.00002344,-0.00034535,0.00064806,-0.000384
 05,-0.00009386,-0.00022219,0.00033123,-0.00364267,-0.00172427,-0.00176
 005,0.03292826,-0.00152566,-0.00167141,0.00092125,0.00004817,0.0003244
 5,-0.00089986,0.00046000,0.00026597,0.00021491,0.00412663,-0.00188576,
 -0.00239814,-0.00221187,-0.01391488,0.01132400,0.01758414,-0.29819113,
 0.10661694,-0.00016784,0.00009595,0.00007068,0.00019134,-0.00004900,-0
 .00030713,-0.00013169,0.00006375,-0.00002185,-0.00054295,-0.00102980,0
 .00051602,-0.00002582,0.00015588,0.00012884,-0.00122929,0.00066317,-0.
 00057371,-0.01712954,0.31329577,-0.00275864,-0.00441683,0.00094647,-0.
 00088614,0.00215674,-0.00085342,0.00211019,-0.00108179,-0.00035678,0.0
 0188836,-0.00217874,-0.00018263,-0.00086018,-0.01321627,0.00865825,0.0
 0564290,0.10740635,-0.10191718,0.00038441,0.00023753,0.00005293,0.0002
 7348,-0.00008114,0.00018121,-0.00000780,0.00006662,0.00028310,0.000018
 68,-0.00084807,0.00049493,0.00011293,-0.00043825,0.00040666,-0.0019111
 0,-0.00014186,0.00045137,-0.00309753,-0.11464968,0.09936042,-0.0070569
 6,-0.00681625,-0.00746487,-0.00323413,0.00627125,-0.00246194,0.0045553
 9,-0.00273648,-0.00041486,-0.00667724,-0.00580641,-0.00084030,-0.00492
 871,0.00502655,0.02036576,-0.03899569,0.00048506,0.05947876,0.00026998
 ,0.00037849,0.00030793,-0.00086668,-0.00028556,-0.00009871,0.00012538,
 -0.00023067,0.00047208,-0.00000557,-0.00003284,-0.00008524,0.00109438,
 0.00041311,-0.00079636,0.00467201,0.00477149,0.00363103,0.00156888,0.0
 0055439,-0.00090958,0.04947896,-0.00325778,-0.00298447,-0.00234201,-0.
 00248992,0.00194122,-0.00229988,0.00152308,-0.00100880,0.00006020,-0.0
 0182025,0.00012845,-0.00132036,0.00261767,0.00802024,-0.02233230,0.006
 53674,-0.05927622,0.02134737,0.00036313,0.00016809,0.00019735,-0.00018
 554,-0.00016587,-0.00016922,0.00006798,0.00003345,0.00034995,0.0000655
 4,0.00018241,0.00037678,0.00036162,-0.00019871,0.00066777,0.00347317,-
 0.00239701,-0.00123281,-0.00526332,0.00187704,0.02718539,-0.00199212,0
 .05368018,-0.00183515,-0.00156775,-0.00083330,-0.00080532,0.00215372,0
 .00034113,0.00145176,-0.00121813,-0.00008919,-0.00235304,-0.00003136,0
 .00075449,0.00167669,0.00492065,-0.01035798,0.06810138,0.01938931,-0.3
 3129514,-0.00029821,0.00007893,0.00003176,-0.00003879,0.00008689,0.000
 13381,-0.00022489,-0.00023429,0.00024772,0.00037993,0.00001340,0.00039
 073,-0.00027587,-0.00085040,0.00013852,0.00265303,-0.00131047,0.001224
 36,0.00275216,-0.00094227,-0.00752532,-0.07118368,-0.02048823,0.346838
 41\\-0.00004199,-0.00002244,-0.00002728,0.00007800,0.00003337,0.000002
 45,-0.00003636,-0.00000718,0.00001698,-0.00001032,-0.00002508,0.000003
 00,0.00000587,0.00000886,-0.00000708,0.00000769,0.00000871,0.00000443,
 0.00000736,-0.00000316,-0.00000367,-0.00000226,0.00000129,0.00001022,0
 .00000031,-0.00000052,0.00000204,-0.00000586,0.00001048,0.00000710,0.0
 0000267,0.00000091,-0.00000602,-0.00000041,-0.00000004,0.00000254,-0.0
 0000044,-0.00000549,0.00000333,-0.00000426,0.00000029,-0.00000804\\\@


 THERE IS NO CURE FOR BIRTH AND DEATH SAVE TO ENJOY THE INTERVAL.

                               -- GEORGE SANTAYANA
 Job cpu time:       0 days  0 hours  4 minutes  8.7 seconds.
 File lengths (MBytes):  RWF=     23 Int=      0 D2E=      0 Chk=      2 Scr=      1
 Normal termination of Gaussian 09 at Fri Mar 18 03:15:56 2016.
