Job Start Time: Mon Mar 13 09:35:16 MDT 2023
SLURM Job ID: 16560
SLURM Job Name: DATS_rct
 Entering Gaussian System, Link 0=/opt/apps/Gaussian/G16C/g16/g16
 Initial command:
 /opt/apps/Gaussian/G16C/g16/l1.exe "/tmp/Gau-312959.inp" -scrdir="/tmp/"
 Entering Link 1 = /opt/apps/Gaussian/G16C/g16/l1.exe PID=    312960.
  
 Copyright (c) 1988-2019, Gaussian, Inc.  All Rights Reserved.
  
 This is part of the Gaussian(R) 16 program.  It is based on
 the Gaussian(R) 09 system (copyright 2009, Gaussian, Inc.),
 the Gaussian(R) 03 system (copyright 2003, Gaussian, Inc.),
 the Gaussian(R) 98 system (copyright 1998, Gaussian, Inc.),
 the Gaussian(R) 94 system (copyright 1995, Gaussian, Inc.),
 the Gaussian 92(TM) system (copyright 1992, Gaussian, Inc.),
 the Gaussian 90(TM) system (copyright 1990, Gaussian, Inc.),
 the Gaussian 88(TM) system (copyright 1988, Gaussian, Inc.),
 the Gaussian 86(TM) system (copyright 1986, Carnegie Mellon
 University), and the Gaussian 82(TM) system (copyright 1983,
 Carnegie Mellon University). Gaussian is a federally registered
 trademark of Gaussian, Inc.
  
 This software contains proprietary and confidential information,
 including trade secrets, belonging to Gaussian, Inc.
  
 This software is provided under written license and may be
 used, copied, transmitted, or stored only in accord with that
 written license.
  
 The following legend is applicable only to US Government
 contracts under FAR:
  
                    RESTRICTED RIGHTS LEGEND
  
 Use, reproduction and disclosure by the US Government is
 subject to restrictions as set forth in subparagraphs (a)
 and (c) of the Commercial Computer Software - Restricted
 Rights clause in FAR 52.227-19.
  
 Gaussian, Inc.
 340 Quinnipiac St., Bldg. 40, Wallingford CT 06492
  
  
 ---------------------------------------------------------------
 Warning -- This program may not be used in any manner that
 competes with the business of Gaussian, Inc. or will provide
 assistance to any competitor of Gaussian, Inc.  The licensee
 of this program is prohibited from giving any competitor of
 Gaussian, Inc. access to this program.  By using this program,
 the user acknowledges that Gaussian, Inc. is engaged in the
 business of creating and licensing software in the field of
 computational chemistry and represents and warrants to the
 licensee that it is not a competitor of Gaussian, Inc. and that
 it will not use this program in any manner prohibited above.
 ---------------------------------------------------------------
  

 Cite this work as:
 Gaussian 16, Revision C.01,
 M. J. Frisch, G. W. Trucks, H. B. Schlegel, G. E. Scuseria, 
 M. A. Robb, J. R. Cheeseman, G. Scalmani, V. Barone, 
 G. A. Petersson, H. Nakatsuji, X. Li, M. Caricato, A. V. Marenich, 
 J. Bloino, B. G. Janesko, R. Gomperts, B. Mennucci, H. P. Hratchian, 
 J. V. Ortiz, A. F. Izmaylov, J. L. Sonnenberg, D. Williams-Young, 
 F. Ding, F. Lipparini, F. Egidi, J. Goings, B. Peng, A. Petrone, 
 T. Henderson, D. Ranasinghe, V. G. Zakrzewski, J. Gao, N. Rega, 
 G. Zheng, W. Liang, M. Hada, M. Ehara, K. Toyota, R. Fukuda, 
 J. Hasegawa, M. Ishida, T. Nakajima, Y. Honda, O. Kitao, H. Nakai, 
 T. Vreven, K. Throssell, J. A. Montgomery, Jr., J. E. Peralta, 
 F. Ogliaro, M. J. Bearpark, J. J. Heyd, E. N. Brothers, K. N. Kudin, 
 V. N. Staroverov, T. A. Keith, R. Kobayashi, J. Normand, 
 K. Raghavachari, A. P. Rendell, J. C. Burant, S. S. Iyengar, 
 J. Tomasi, M. Cossi, J. M. Millam, M. Klene, C. Adamo, R. Cammi, 
 J. W. Ochterski, R. L. Martin, K. Morokuma, O. Farkas, 
 J. B. Foresman, and D. J. Fox, Gaussian, Inc., Wallingford CT, 2019.
 
 ******************************************
 Gaussian 16:  AS64L-G16RevC.01  3-Jul-2019
                13-Mar-2023 
 ******************************************
 %chk=DATS_rct.chk
 %mem=64gb
 %nprocshared=32
 Will use up to   32 processors via shared memory.
 -----------------------
 # opt b3lyp/6-31G* freq
 -----------------------
 1/18=20,19=15,26=3,38=1/1,3;
 2/9=110,12=2,17=6,18=5,40=1/2;
 3/5=1,6=6,7=1,11=2,25=1,30=1,71=1,74=-5/1,2,3;
 4//1;
 5/5=2,38=5/2;
 6/7=2,8=2,9=2,10=2,28=1/1;
 7//1,2,3,16;
 1/18=20,19=15,26=3/3(2);
 2/9=110/2;
 99//99;
 2/9=110/2;
 3/5=1,6=6,7=1,11=2,25=1,30=1,71=1,74=-5/1,2,3;
 4/5=5,16=3,69=1/1;
 5/5=2,38=5/2;
 7//1,2,3,16;
 1/18=20,19=15,26=3/3(-5);
 2/9=110/2;
 6/7=2,8=2,9=2,10=2,19=2,28=1/1;
 99/9=1/99;
 -------------------
 Title Card Required
 -------------------
 Symbolic Z-matrix:
 Charge =  0 Multiplicity = 1
 C                     1.38094  -0.23692   1.07205 
 C                     0.51204   0.72591   1.35666 
 H                     1.85342  -0.97178   1.72951 
 H                     0.08241   1.02849   2.32381 
 C                     1.81482  -0.07777  -0.33518 
 O                     2.67004  -0.63886  -0.96817 
 C                     0.3174    1.56515   0.14535 
 O                    -0.30077   2.58368  -0.01836 
 O                     1.07418   0.98493  -0.87178 
 C                    -1.7566   -0.64215  -0.10848 
 C                    -0.83206  -1.71724  -0.4645 
 H                    -0.70954  -1.90587  -1.53078 
 C                     0.00221  -2.33528   0.38627 
 H                    -0.09238  -2.22658   1.47291 
 C                    -1.83114  -0.1751    1.14902 
 H                    -1.39533  -0.7224    2.00038 
 H                    -2.39562   0.71894   1.39525 
 H                     0.77037  -3.01737   0.03637 
 C                    -2.52019   0.0542   -1.21875 
 H                    -2.33516   1.13289  -1.20581 
 H                    -2.24152  -0.32396  -2.20573 
 H                    -3.5979   -0.10075  -1.09084 
 
 Add virtual bond connecting atoms H14        and H3         Dist= 4.40D+00.
 Add virtual bond connecting atoms H16        and H4         Dist= 4.37D+00.

 GradGradGradGradGradGradGradGradGradGradGradGradGradGradGradGradGradGrad
 Berny optimization.
 Initialization pass.
                           ----------------------------
                           !    Initial Parameters    !
                           ! (Angstroms and Degrees)  !
 --------------------------                            --------------------------
 ! Name  Definition              Value          Derivative Info.                !
 --------------------------------------------------------------------------------
 ! R1    R(1,2)                  1.3278         estimate D2E/DX2                !
 ! R2    R(1,3)                  1.0934         estimate D2E/DX2                !
 ! R3    R(1,5)                  1.4812         estimate D2E/DX2                !
 ! R4    R(2,4)                  1.1007         estimate D2E/DX2                !
 ! R5    R(2,7)                  1.4864         estimate D2E/DX2                !
 ! R6    R(3,14)                 2.3295         estimate D2E/DX2                !
 ! R7    R(4,16)                 2.3139         estimate D2E/DX2                !
 ! R8    R(5,6)                  1.2029         estimate D2E/DX2                !
 ! R9    R(5,9)                  1.4021         estimate D2E/DX2                !
 ! R10   R(7,8)                  1.2026         estimate D2E/DX2                !
 ! R11   R(7,9)                  1.3942         estimate D2E/DX2                !
 ! R12   R(10,11)                1.462          estimate D2E/DX2                !
 ! R13   R(10,15)                1.3435         estimate D2E/DX2                !
 ! R14   R(10,19)                1.5168         estimate D2E/DX2                !
 ! R15   R(11,12)                1.0897         estimate D2E/DX2                !
 ! R16   R(11,13)                1.3423         estimate D2E/DX2                !
 ! R17   R(13,14)                1.0962         estimate D2E/DX2                !
 ! R18   R(13,18)                1.0852         estimate D2E/DX2                !
 ! R19   R(15,16)                1.102          estimate D2E/DX2                !
 ! R20   R(15,17)                1.0856         estimate D2E/DX2                !
 ! R21   R(19,20)                1.0945         estimate D2E/DX2                !
 ! R22   R(19,21)                1.0931         estimate D2E/DX2                !
 ! R23   R(19,22)                1.0963         estimate D2E/DX2                !
 ! A1    A(2,1,3)              129.8854         estimate D2E/DX2                !
 ! A2    A(2,1,5)              108.5073         estimate D2E/DX2                !
 ! A3    A(3,1,5)              121.1252         estimate D2E/DX2                !
 ! A4    A(1,2,4)              130.0241         estimate D2E/DX2                !
 ! A5    A(1,2,7)              108.689          estimate D2E/DX2                !
 ! A6    A(4,2,7)              120.6452         estimate D2E/DX2                !
 ! A7    A(1,3,14)              86.2644         estimate D2E/DX2                !
 ! A8    A(2,4,16)              85.3219         estimate D2E/DX2                !
 ! A9    A(1,5,6)              131.1558         estimate D2E/DX2                !
 ! A10   A(1,5,9)              106.8765         estimate D2E/DX2                !
 ! A11   A(6,5,9)              121.8521         estimate D2E/DX2                !
 ! A12   A(2,7,8)              131.0261         estimate D2E/DX2                !
 ! A13   A(2,7,9)              106.7655         estimate D2E/DX2                !
 ! A14   A(8,7,9)              122.1504         estimate D2E/DX2                !
 ! A15   A(5,9,7)              108.8413         estimate D2E/DX2                !
 ! A16   A(11,10,15)           121.2426         estimate D2E/DX2                !
 ! A17   A(11,10,19)           118.5361         estimate D2E/DX2                !
 ! A18   A(15,10,19)           119.8412         estimate D2E/DX2                !
 ! A19   A(10,11,12)           115.8914         estimate D2E/DX2                !
 ! A20   A(10,11,13)           125.2598         estimate D2E/DX2                !
 ! A21   A(12,11,13)           118.0727         estimate D2E/DX2                !
 ! A22   A(11,13,14)           121.9399         estimate D2E/DX2                !
 ! A23   A(11,13,18)           121.6659         estimate D2E/DX2                !
 ! A24   A(14,13,18)           116.2964         estimate D2E/DX2                !
 ! A25   A(3,14,13)             95.1948         estimate D2E/DX2                !
 ! A26   A(10,15,16)           121.9065         estimate D2E/DX2                !
 ! A27   A(10,15,17)           121.8319         estimate D2E/DX2                !
 ! A28   A(16,15,17)           116.0675         estimate D2E/DX2                !
 ! A29   A(4,16,15)             89.1255         estimate D2E/DX2                !
 ! A30   A(10,19,20)           111.0203         estimate D2E/DX2                !
 ! A31   A(10,19,21)           111.9485         estimate D2E/DX2                !
 ! A32   A(10,19,22)           110.1576         estimate D2E/DX2                !
 ! A33   A(20,19,21)           107.9709         estimate D2E/DX2                !
 ! A34   A(20,19,22)           107.7042         estimate D2E/DX2                !
 ! A35   A(21,19,22)           107.883          estimate D2E/DX2                !
 ! D1    D(3,1,2,4)              1.7884         estimate D2E/DX2                !
 ! D2    D(3,1,2,7)            172.4549         estimate D2E/DX2                !
 ! D3    D(5,1,2,4)           -170.1535         estimate D2E/DX2                !
 ! D4    D(5,1,2,7)              0.513          estimate D2E/DX2                !
 ! D5    D(2,1,3,14)            83.2032         estimate D2E/DX2                !
 ! D6    D(5,1,3,14)          -105.7299         estimate D2E/DX2                !
 ! D7    D(2,1,5,6)            172.2166         estimate D2E/DX2                !
 ! D8    D(2,1,5,9)             -3.8323         estimate D2E/DX2                !
 ! D9    D(3,1,5,6)             -0.5651         estimate D2E/DX2                !
 ! D10   D(3,1,5,9)           -176.614          estimate D2E/DX2                !
 ! D11   D(1,2,4,16)           -81.8431         estimate D2E/DX2                !
 ! D12   D(7,2,4,16)           108.4433         estimate D2E/DX2                !
 ! D13   D(1,2,7,8)           -174.2101         estimate D2E/DX2                !
 ! D14   D(1,2,7,9)              2.9986         estimate D2E/DX2                !
 ! D15   D(4,2,7,8)             -2.51           estimate D2E/DX2                !
 ! D16   D(4,2,7,9)            174.6987         estimate D2E/DX2                !
 ! D17   D(1,3,14,13)           60.7058         estimate D2E/DX2                !
 ! D18   D(2,4,16,15)          -67.0115         estimate D2E/DX2                !
 ! D19   D(1,5,9,7)              5.7253         estimate D2E/DX2                !
 ! D20   D(6,5,9,7)           -170.773          estimate D2E/DX2                !
 ! D21   D(2,7,9,5)             -5.4139         estimate D2E/DX2                !
 ! D22   D(8,7,9,5)            172.0992         estimate D2E/DX2                !
 ! D23   D(15,10,11,12)       -169.2897         estimate D2E/DX2                !
 ! D24   D(15,10,11,13)          0.3793         estimate D2E/DX2                !
 ! D25   D(19,10,11,12)          3.62           estimate D2E/DX2                !
 ! D26   D(19,10,11,13)        173.2891         estimate D2E/DX2                !
 ! D27   D(11,10,15,16)        -14.9201         estimate D2E/DX2                !
 ! D28   D(11,10,15,17)        170.3434         estimate D2E/DX2                !
 ! D29   D(19,10,15,16)        172.2615         estimate D2E/DX2                !
 ! D30   D(19,10,15,17)         -2.475          estimate D2E/DX2                !
 ! D31   D(11,10,19,20)       -123.2272         estimate D2E/DX2                !
 ! D32   D(11,10,19,21)         -2.4827         estimate D2E/DX2                !
 ! D33   D(11,10,19,22)        117.557          estimate D2E/DX2                !
 ! D34   D(15,10,19,20)         49.7846         estimate D2E/DX2                !
 ! D35   D(15,10,19,21)        170.5291         estimate D2E/DX2                !
 ! D36   D(15,10,19,22)        -69.4311         estimate D2E/DX2                !
 ! D37   D(10,11,13,14)         13.3138         estimate D2E/DX2                !
 ! D38   D(10,11,13,18)       -170.4164         estimate D2E/DX2                !
 ! D39   D(12,11,13,14)       -177.2216         estimate D2E/DX2                !
 ! D40   D(12,11,13,18)         -0.9518         estimate D2E/DX2                !
 ! D41   D(11,13,14,3)        -110.2889         estimate D2E/DX2                !
 ! D42   D(18,13,14,3)          73.2522         estimate D2E/DX2                !
 ! D43   D(10,15,16,4)         115.5821         estimate D2E/DX2                !
 ! D44   D(17,15,16,4)         -69.3954         estimate D2E/DX2                !
 --------------------------------------------------------------------------------
 Trust Radius=3.00D-01 FncErr=1.00D-07 GrdErr=1.00D-06 EigMax=2.50D+02 EigMin=1.00D-04
 Number of steps in this run=    112 maximum allowed number of steps=    132.
 GradGradGradGradGradGradGradGradGradGradGradGradGradGradGradGradGradGrad

                          Input orientation:                          
 ---------------------------------------------------------------------
 Center     Atomic      Atomic             Coordinates (Angstroms)
 Number     Number       Type             X           Y           Z
 ---------------------------------------------------------------------
      1          6           0        1.380935   -0.236917    1.072053
      2          6           0        0.512038    0.725906    1.356656
      3          1           0        1.853415   -0.971780    1.729508
      4          1           0        0.082412    1.028490    2.323805
      5          6           0        1.814817   -0.077773   -0.335181
      6          8           0        2.670038   -0.638864   -0.968167
      7          6           0        0.317402    1.565152    0.145347
      8          8           0       -0.300766    2.583679   -0.018358
      9          8           0        1.074175    0.984927   -0.871781
     10          6           0       -1.756600   -0.642147   -0.108480
     11          6           0       -0.832058   -1.717241   -0.464502
     12          1           0       -0.709536   -1.905866   -1.530776
     13          6           0        0.002205   -2.335278    0.386268
     14          1           0       -0.092375   -2.226580    1.472907
     15          6           0       -1.831138   -0.175095    1.149018
     16          1           0       -1.395329   -0.722404    2.000381
     17          1           0       -2.395619    0.718935    1.395247
     18          1           0        0.770367   -3.017370    0.036373
     19          6           0       -2.520188    0.054203   -1.218747
     20          1           0       -2.335163    1.132889   -1.205808
     21          1           0       -2.241520   -0.323955   -2.205733
     22          1           0       -3.597900   -0.100748   -1.090840
 ---------------------------------------------------------------------
                    Distance matrix (angstroms):
                    1          2          3          4          5
     1  C    0.000000
     2  C    1.327783   0.000000
     3  H    1.093393   2.195552   0.000000
     4  H    2.203248   1.100687   2.736918   0.000000
     5  C    1.481178   2.281545   2.250262   3.360841   0.000000
     6  O    2.446599   3.453167   2.838161   4.506990   1.202870
     7  C    2.288523   1.486434   3.362280   2.255860   2.274283
     8  O    3.460184   2.450027   4.509636   2.837458   3.414586
     9  O    2.316354   2.312795   3.347032   3.346231   1.402078
    10  C    3.376684   3.027360   4.064365   3.476924   3.622835
    11  C    3.074036   3.330492   3.546993   4.018700   3.116172
    12  H    3.732315   4.093376   4.250963   4.908709   3.338223
    13  C    2.602752   3.251527   2.662780   3.882708   2.983686
    14  H    2.508004   3.015958   2.329478   3.368985   3.394692
    15  C    3.213590   2.519006   3.814132   2.547629   3.937678
    16  H    2.967344   2.479926   3.269541   2.313861   4.021870
    17  H    3.909024   2.907921   4.585252   2.664335   4.621352
    18  H    3.029248   3.977687   2.867776   4.698363   3.141681
    19  C    4.533352   4.034635   5.373384   4.502492   4.426102
    20  H    4.568851   3.852066   5.530813   4.279455   4.409765
    21  H    4.886066   4.623300   5.716143   5.267493   4.473638
    22  H    5.430050   4.854398   6.199185   5.145841   5.465259
                    6          7          8          9         10
     6  O    0.000000
     7  C    3.410645   0.000000
     8  O    4.484707   1.202634   0.000000
     9  O    2.278764   1.394244   2.274819   0.000000
    10  C    4.509345   3.039421   3.540272   3.353101   0.000000
    11  C    3.698818   3.530903   4.356516   3.331863   1.461970
    12  H    3.652854   3.988979   4.755052   3.460142   2.171694
    13  C    3.439425   3.920554   4.944861   3.708850   2.490956
    14  H    4.013802   4.038263   5.040426   4.143933   2.789419
    15  C    4.995812   2.941435   3.363873   3.724261   1.343501
    16  H    5.034527   3.406980   4.025365   4.154846   2.141087
    17  H    5.752410   3.104644   3.140694   4.153268   2.126519
    18  H    3.205486   4.606144   5.702813   4.115267   3.471056
    19  C    5.242287   3.492225   3.572816   3.729085   1.516794
    20  H    5.314849   3.008084   2.766514   3.428856   2.165552
    21  H    5.074854   3.955298   4.123769   3.806105   2.175974
    22  H    6.292191   4.430911   4.384913   4.801558   2.156045
                   11         12         13         14         15
    11  C    0.000000
    12  H    1.089739   0.000000
    13  C    1.342302   2.089504   0.000000
    14  H    2.135442   3.083157   1.096150   0.000000
    15  C    2.445367   3.381546   2.934165   2.708651   0.000000
    16  H    2.717098   3.786815   2.675785   2.058753   1.101951
    17  H    3.440689   4.277156   4.011959   3.739923   1.085614
    18  H    2.123435   2.425182   1.085241   1.852917   4.010528
    19  C    2.560602   2.686576   3.827291   4.282668   2.476626
    20  H    3.306373   3.461546   4.475062   4.846818   2.740450
    21  H    2.638127   2.303255   3.974694   4.665962   3.383035
    22  H    3.264235   3.434333   4.487285   4.835356   2.853759
                   16         17         18         19         20
    16  H    0.000000
    17  H    1.855862   0.000000
    18  H    3.716778   5.082320   0.000000
    19  C    3.497315   2.700065   4.673076   0.000000
    20  H    3.821655   2.634483   5.330289   1.094516   0.000000
    21  H    4.308851   3.752122   4.620929   1.093069   1.769467
    22  H    3.846222   2.880623   5.372062   1.096282   1.769063
                   21         22
    21  H    0.000000
    22  H    1.769908   0.000000
 Stoichiometry    C9H10O3
 Framework group  C1[X(C9H10O3)]
 Deg. of freedom    60
 Full point group                 C1      NOp   1
 Largest Abelian subgroup         C1      NOp   1
 Largest concise Abelian subgroup C1      NOp   1
                         Standard orientation:                         
 ---------------------------------------------------------------------
 Center     Atomic      Atomic             Coordinates (Angstroms)
 Number     Number       Type             X           Y           Z
 ---------------------------------------------------------------------
      1          6           0        1.374826   -0.285547    1.068459
      2          6           0        0.551830    0.719031    1.345064
      3          1           0        1.817460   -1.032598    1.732913
      4          1           0        0.141799    1.052916    2.310417
      5          6           0        1.807401   -0.163977   -0.342919
      6          8           0        2.632847   -0.771059   -0.972988
      7          6           0        0.388296    1.550798    0.124037
      8          8           0       -0.184277    2.594028   -0.049628
      9          8           0        1.112342    0.924182   -0.889385
     10          6           0       -1.784466   -0.563699   -0.090637
     11          6           0       -0.911349   -1.683840   -0.437490
     12          1           0       -0.803536   -1.891289   -1.501855
     13          6           0       -0.100938   -2.328071    0.416896
     14          1           0       -0.184323   -2.201464    1.502513
     15          6           0       -1.830708   -0.077873    1.161094
     16          1           0       -1.415151   -0.633466    2.017204
     17          1           0       -2.352921    0.843765    1.398654
     18          1           0        0.633702   -3.048508    0.071899
     19          6           0       -2.522226    0.152283   -1.205868
     20          1           0       -2.288717    1.221598   -1.207803
     21          1           0       -2.266516   -0.250533   -2.189307
     22          1           0       -3.605078    0.047754   -1.070446
 ---------------------------------------------------------------------
 Rotational constants (GHZ):           1.1982975           0.9572320           0.7306802
 Standard basis: 6-31G(d) (6D, 7F)
 There are   200 symmetry adapted cartesian basis functions of A   symmetry.
 There are   200 symmetry adapted basis functions of A   symmetry.
   200 basis functions,   376 primitive gaussians,   200 cartesian basis functions
    44 alpha electrons       44 beta electrons
       nuclear repulsion energy       709.6790244054 Hartrees.
 NAtoms=   22 NActive=   22 NUniq=   22 SFac= 1.00D+00 NAtFMM=   60 NAOKFM=F Big=F
 Integral buffers will be    131072 words long.
 Raffenetti 2 integral format.
 Two-electron integral symmetry is turned on.
 One-electron integrals computed using PRISM.
 NBasis=   200 RedAO= T EigKep=  9.60D-04  NBF=   200
 NBsUse=   200 1.00D-06 EigRej= -1.00D+00 NBFU=   200
 ExpMin= 1.61D-01 ExpMax= 5.48D+03 ExpMxC= 8.25D+02 IAcc=3 IRadAn=         5 AccDes= 0.00D+00
 Harris functional with IExCor=  402 and IRadAn=       5 diagonalized for initial guess.
 HarFok:  IExCor=  402 AccDes= 0.00D+00 IRadAn=         5 IDoV= 1 UseB2=F ITyADJ=14
 ICtDFT=  3500011 ScaDFX=  1.000000  1.000000  1.000000  1.000000
 FoFCou: FMM=F IPFlag=           0 FMFlag=      100000 FMFlg1=           0
         NFxFlg=           0 DoJE=T BraDBF=F KetDBF=T FulRan=T
         wScrn=  0.000000 ICntrl=       500 IOpCl=  0 I1Cent=   200000004 NGrid=           0
         NMat0=    1 NMatS0=      1 NMatT0=    0 NMatD0=    1 NMtDS0=    0 NMtDT0=    0
 Petite list used in FoFCou.
 Requested convergence on RMS density matrix=1.00D-08 within 128 cycles.
 Requested convergence on MAX density matrix=1.00D-06.
 Requested convergence on             energy=1.00D-06.
 No special actions if energy rises.
 Integral accuracy reduced to 1.0D-05 until final iterations.
 Initial convergence to 1.0D-05 achieved.  Increase integral accuracy.
 SCF Done:  E(RB3LYP) =  -574.580575446     A.U. after   15 cycles
            NFock= 15  Conv=0.52D-08     -V/T= 2.0090

 **********************************************************************

            Population analysis using the SCF Density.

 **********************************************************************

 Orbital symmetries:
       Occupied  (A) (A) (A) (A) (A) (A) (A) (A) (A) (A) (A) (A)
                 (A) (A) (A) (A) (A) (A) (A) (A) (A) (A) (A) (A)
                 (A) (A) (A) (A) (A) (A) (A) (A) (A) (A) (A) (A)
                 (A) (A) (A) (A) (A) (A) (A) (A)
       Virtual   (A) (A) (A) (A) (A) (A) (A) (A) (A) (A) (A) (A)
                 (A) (A) (A) (A) (A) (A) (A) (A) (A) (A) (A) (A)
                 (A) (A) (A) (A) (A) (A) (A) (A) (A) (A) (A) (A)
                 (A) (A) (A) (A) (A) (A) (A) (A) (A) (A) (A) (A)
                 (A) (A) (A) (A) (A) (A) (A) (A) (A) (A) (A) (A)
                 (A) (A) (A) (A) (A) (A) (A) (A) (A) (A) (A) (A)
                 (A) (A) (A) (A) (A) (A) (A) (A) (A) (A) (A) (A)
                 (A) (A) (A) (A) (A) (A) (A) (A) (A) (A) (A) (A)
                 (A) (A) (A) (A) (A) (A) (A) (A) (A) (A) (A) (A)
                 (A) (A) (A) (A) (A) (A) (A) (A) (A) (A) (A) (A)
                 (A) (A) (A) (A) (A) (A) (A) (A) (A) (A) (A) (A)
                 (A) (A) (A) (A) (A) (A) (A) (A) (A) (A) (A) (A)
                 (A) (A) (A) (A) (A) (A) (A) (A) (A) (A) (A) (A)
 The electronic state is 1-A.
 Alpha  occ. eigenvalues --  -19.20847 -19.15777 -19.15579 -10.33490 -10.33323
 Alpha  occ. eigenvalues --  -10.23306 -10.22913 -10.22013 -10.21234 -10.21151
 Alpha  occ. eigenvalues --  -10.20704 -10.19117  -1.13053  -1.06583  -1.02805
 Alpha  occ. eigenvalues --   -0.84895  -0.83080  -0.76313  -0.70458  -0.68771
 Alpha  occ. eigenvalues --   -0.63020  -0.62009  -0.58448  -0.53906  -0.50471
 Alpha  occ. eigenvalues --   -0.50002  -0.49215  -0.47097  -0.46447  -0.45081
 Alpha  occ. eigenvalues --   -0.43466  -0.42862  -0.42671  -0.40391  -0.39962
 Alpha  occ. eigenvalues --   -0.39240  -0.37459  -0.36616  -0.34936  -0.32372
 Alpha  occ. eigenvalues --   -0.30694  -0.28519  -0.27882  -0.24987
 Alpha virt. eigenvalues --   -0.08267  -0.05089   0.03998   0.04341   0.07160
 Alpha virt. eigenvalues --    0.09197   0.09926   0.10988   0.11679   0.12793
 Alpha virt. eigenvalues --    0.14164   0.15774   0.16819   0.18339   0.20064
 Alpha virt. eigenvalues --    0.20848   0.22350   0.23461   0.24411   0.29271
 Alpha virt. eigenvalues --    0.30365   0.32151   0.35305   0.39619   0.41478
 Alpha virt. eigenvalues --    0.42183   0.43584   0.46056   0.47915   0.51173
 Alpha virt. eigenvalues --    0.51715   0.52397   0.53556   0.56472   0.58310
 Alpha virt. eigenvalues --    0.59261   0.60370   0.60649   0.62603   0.64271
 Alpha virt. eigenvalues --    0.65378   0.68083   0.68874   0.70264   0.71736
 Alpha virt. eigenvalues --    0.75105   0.75883   0.77442   0.79174   0.80233
 Alpha virt. eigenvalues --    0.81078   0.83031   0.84464   0.84734   0.86794
 Alpha virt. eigenvalues --    0.87496   0.89872   0.91583   0.92869   0.94094
 Alpha virt. eigenvalues --    0.94868   0.95479   0.96803   0.97726   0.98175
 Alpha virt. eigenvalues --    1.02581   1.04138   1.06784   1.09458   1.09768
 Alpha virt. eigenvalues --    1.11616   1.14371   1.15091   1.17715   1.23277
 Alpha virt. eigenvalues --    1.24954   1.30325   1.33335   1.35158   1.35282
 Alpha virt. eigenvalues --    1.36706   1.39223   1.40600   1.41869   1.44089
 Alpha virt. eigenvalues --    1.49466   1.50812   1.57079   1.59424   1.62322
 Alpha virt. eigenvalues --    1.65357   1.72463   1.72775   1.76145   1.76593
 Alpha virt. eigenvalues --    1.77789   1.78717   1.80360   1.81618   1.82978
 Alpha virt. eigenvalues --    1.86179   1.87196   1.89391   1.91498   1.93301
 Alpha virt. eigenvalues --    1.94745   1.96300   1.97813   2.01499   2.03089
 Alpha virt. eigenvalues --    2.06948   2.08608   2.12711   2.15200   2.17161
 Alpha virt. eigenvalues --    2.23029   2.24363   2.26197   2.28227   2.29117
 Alpha virt. eigenvalues --    2.30898   2.34239   2.35203   2.36952   2.42175
 Alpha virt. eigenvalues --    2.49008   2.54477   2.56857   2.58098   2.63101
 Alpha virt. eigenvalues --    2.63943   2.66339   2.68695   2.70558   2.71672
 Alpha virt. eigenvalues --    2.80226   2.82590   2.91846   2.94290   2.98597
 Alpha virt. eigenvalues --    3.04310   3.07335   3.13796   3.22262   4.00892
 Alpha virt. eigenvalues --    4.05458   4.11516   4.19772   4.27047   4.31820
 Alpha virt. eigenvalues --    4.33958   4.34951   4.48623   4.52402   4.59109
 Alpha virt. eigenvalues --    4.90258
          Condensed to atoms (all electrons):
               1          2          3          4          5          6
     1  C    5.287581   0.444497   0.357588  -0.030415   0.336393  -0.070939
     2  C    0.444497   5.288905  -0.032286   0.355663  -0.026158   0.004138
     3  H    0.357588  -0.032286   0.524963  -0.002146  -0.028671   0.000183
     4  H   -0.030415   0.355663  -0.002146   0.522626   0.004173  -0.000036
     5  C    0.336393  -0.026158  -0.028671   0.004173   4.302018   0.606563
     6  O   -0.070939   0.004138   0.000183  -0.000036   0.606563   7.974005
     7  C   -0.027734   0.334137   0.004278  -0.028270  -0.034280  -0.000047
     8  O    0.004103  -0.070059  -0.000036   0.000453   0.000100  -0.000025
     9  O   -0.098711  -0.098896   0.002593   0.002573   0.216459  -0.064243
    10  C   -0.011823   0.003100   0.000137   0.000075  -0.000725   0.000092
    11  C   -0.001004  -0.013162   0.000181   0.000207  -0.000076  -0.001946
    12  H    0.000189  -0.000145  -0.000022   0.000000   0.000435   0.000111
    13  C    0.022038  -0.012476  -0.002694   0.000124   0.002938  -0.002797
    14  H   -0.003013  -0.003198  -0.001221  -0.000025  -0.000083   0.000073
    15  C   -0.015809   0.019568   0.000087  -0.004174  -0.000025   0.000021
    16  H   -0.003793  -0.004423   0.000027  -0.002478   0.000027   0.000001
    17  H    0.000793  -0.003006  -0.000009   0.000537  -0.000015   0.000000
    18  H   -0.002208   0.000565   0.000331  -0.000006   0.000059   0.001382
    19  C   -0.000031  -0.000459  -0.000001  -0.000025   0.000098  -0.000000
    20  H    0.000024   0.000239   0.000000   0.000013   0.000013  -0.000000
    21  H    0.000012  -0.000010  -0.000000   0.000000   0.000004  -0.000001
    22  H   -0.000012  -0.000008   0.000000  -0.000001  -0.000003   0.000000
               7          8          9         10         11         12
     1  C   -0.027734   0.004103  -0.098711  -0.011823  -0.001004   0.000189
     2  C    0.334137  -0.070059  -0.098896   0.003100  -0.013162  -0.000145
     3  H    0.004278  -0.000036   0.002593   0.000137   0.000181  -0.000022
     4  H   -0.028270   0.000453   0.002573   0.000075   0.000207   0.000000
     5  C   -0.034280   0.000100   0.216459  -0.000725  -0.000076   0.000435
     6  O   -0.000047  -0.000025  -0.064243   0.000092  -0.001946   0.000111
     7  C    4.305663   0.587308   0.222261   0.001284  -0.000755   0.000019
     8  O    0.587308   7.998056  -0.064234  -0.002678   0.000107   0.000002
     9  O    0.222261  -0.064234   8.355129   0.001556   0.003228  -0.000099
    10  C    0.001284  -0.002678   0.001556   4.572780   0.483812  -0.039150
    11  C   -0.000755   0.000107   0.003228   0.483812   4.845793   0.364139
    12  H    0.000019   0.000002  -0.000099  -0.039150   0.364139   0.578501
    13  C    0.000174   0.000026  -0.001812  -0.033025   0.592652  -0.058469
    14  H    0.000088   0.000001   0.000009  -0.013594  -0.033648   0.005487
    15  C    0.002295  -0.002892  -0.001460   0.595344  -0.052854   0.007745
    16  H    0.000408   0.000095   0.000007  -0.020252  -0.014669  -0.000002
    17  H   -0.000585   0.001769   0.000061  -0.026928   0.005440  -0.000153
    18  H   -0.000013   0.000000   0.000040   0.003639  -0.019319  -0.006725
    19  C   -0.000181  -0.002114   0.000452   0.366786  -0.045456  -0.011011
    20  H    0.001535   0.007531  -0.000521  -0.028338   0.001796   0.000081
    21  H   -0.000042   0.000012   0.000024  -0.030968  -0.004396   0.007446
    22  H    0.000056   0.000019   0.000009  -0.025589   0.001183   0.000201
              13         14         15         16         17         18
     1  C    0.022038  -0.003013  -0.015809  -0.003793   0.000793  -0.002208
     2  C   -0.012476  -0.003198   0.019568  -0.004423  -0.003006   0.000565
     3  H   -0.002694  -0.001221   0.000087   0.000027  -0.000009   0.000331
     4  H    0.000124  -0.000025  -0.004174  -0.002478   0.000537  -0.000006
     5  C    0.002938  -0.000083  -0.000025   0.000027  -0.000015   0.000059
     6  O   -0.002797   0.000073   0.000021   0.000001   0.000000   0.001382
     7  C    0.000174   0.000088   0.002295   0.000408  -0.000585  -0.000013
     8  O    0.000026   0.000001  -0.002892   0.000095   0.001769   0.000000
     9  O   -0.001812   0.000009  -0.001460   0.000007   0.000061   0.000040
    10  C   -0.033025  -0.013594   0.595344  -0.020252  -0.026928   0.003639
    11  C    0.592652  -0.033648  -0.052854  -0.014669   0.005440  -0.019319
    12  H   -0.058469   0.005487   0.007745  -0.000002  -0.000153  -0.006725
    13  C    5.124985   0.361443  -0.029275   0.006280   0.000156   0.364240
    14  H    0.361443   0.562800   0.006052   0.006170  -0.000128  -0.038863
    15  C   -0.029275   0.006052   5.253996   0.348618   0.361786   0.000313
    16  H    0.006280   0.006170   0.348618   0.566479  -0.039727  -0.000101
    17  H    0.000156  -0.000128   0.361786  -0.039727   0.533827  -0.000000
    18  H    0.364240  -0.038863   0.000313  -0.000101  -0.000000   0.520744
    19  C    0.008176   0.000040  -0.083274   0.005872  -0.008310  -0.000146
    20  H   -0.000187  -0.000005  -0.004633   0.000032   0.002930   0.000003
    21  H    0.000139   0.000012   0.005133  -0.000189   0.000123  -0.000018
    22  H   -0.000181   0.000002  -0.005218  -0.000143   0.001000   0.000002
              19         20         21         22
     1  C   -0.000031   0.000024   0.000012  -0.000012
     2  C   -0.000459   0.000239  -0.000010  -0.000008
     3  H   -0.000001   0.000000  -0.000000   0.000000
     4  H   -0.000025   0.000013   0.000000  -0.000001
     5  C    0.000098   0.000013   0.000004  -0.000003
     6  O   -0.000000  -0.000000  -0.000001   0.000000
     7  C   -0.000181   0.001535  -0.000042   0.000056
     8  O   -0.002114   0.007531   0.000012   0.000019
     9  O    0.000452  -0.000521   0.000024   0.000009
    10  C    0.366786  -0.028338  -0.030968  -0.025589
    11  C   -0.045456   0.001796  -0.004396   0.001183
    12  H   -0.011011   0.000081   0.007446   0.000201
    13  C    0.008176  -0.000187   0.000139  -0.000181
    14  H    0.000040  -0.000005   0.000012   0.000002
    15  C   -0.083274  -0.004633   0.005133  -0.005218
    16  H    0.005872   0.000032  -0.000189  -0.000143
    17  H   -0.008310   0.002930   0.000123   0.001000
    18  H   -0.000146   0.000003  -0.000018   0.000002
    19  C    5.210568   0.362458   0.365686   0.364452
    20  H    0.362458   0.514107  -0.024038  -0.026263
    21  H    0.365686  -0.024038   0.547478  -0.028775
    22  H    0.364452  -0.026263  -0.028775   0.550251
 Mulliken charges:
               1
     1  C   -0.187727
     2  C   -0.186524
     3  H    0.176718
     4  H    0.181132
     5  C    0.620755
     6  O   -0.446534
     7  C    0.632403
     8  O   -0.457544
     9  O   -0.474424
    10  C    0.204466
    11  C   -0.111253
    12  H    0.151420
    13  C   -0.342455
    14  H    0.151602
    15  C   -0.401343
    16  H    0.151762
    17  H    0.170439
    18  H    0.176080
    19  C   -0.533578
    20  H    0.193222
    21  H    0.162367
    22  H    0.169017
 Sum of Mulliken charges =  -0.00000
 Mulliken charges with hydrogens summed into heavy atoms:
               1
     1  C   -0.011009
     2  C   -0.005392
     5  C    0.620755
     6  O   -0.446534
     7  C    0.632403
     8  O   -0.457544
     9  O   -0.474424
    10  C    0.204466
    11  C    0.040167
    13  C   -0.014773
    15  C   -0.079142
    19  C   -0.008972
 Electronic spatial extent (au):  <R**2>=           1775.5973
 Charge=             -0.0000 electrons
 Dipole moment (field-independent basis, Debye):
    X=             -2.2059    Y=             -2.3093    Z=              3.3058  Tot=              4.5964
 Quadrupole moment (field-independent basis, Debye-Ang):
   XX=            -73.4334   YY=            -75.4275   ZZ=            -65.5344
   XY=              0.6342   XZ=              6.3996   YZ=              0.9367
 Traceless Quadrupole moment (field-independent basis, Debye-Ang):
   XX=             -1.9683   YY=             -3.9624   ZZ=              5.9307
   XY=              0.6342   XZ=              6.3996   YZ=              0.9367
 Octapole moment (field-independent basis, Debye-Ang**2):
  XXX=            -12.6248  YYY=            -16.3033  ZZZ=              3.4108  XYY=             11.1878
  XXY=             15.8571  XXZ=              7.4573  XZZ=             -3.0997  YZZ=              0.7240
  YYZ=              1.7859  XYZ=             -5.6705
 Hexadecapole moment (field-independent basis, Debye-Ang**3):
 XXXX=          -1113.2061 YYYY=           -840.2675 ZZZZ=           -400.6063 XXXY=              1.8708
 XXXZ=             27.2442 YYYX=            -17.0635 YYYZ=              4.4506 ZZZX=             -3.7621
 ZZZY=              3.6195 XXYY=           -316.6953 XXZZ=           -257.8962 YYZZ=           -192.5188
 XXYZ=             -8.0451 YYXZ=              2.6543 ZZXY=             -4.7548
 N-N= 7.096790244054D+02 E-N=-2.758417540668D+03  KE= 5.694552471005D+02
 Calling FoFJK, ICntrl=      2127 FMM=F ISym2X=0 I1Cent= 0 IOpClX= 0 NMat=1 NMatS=1 NMatT=0.
 ***** Axes restored to original set *****
 -------------------------------------------------------------------
 Center     Atomic                   Forces (Hartrees/Bohr)
 Number     Number              X              Y              Z
 -------------------------------------------------------------------
      1        6           0.026120400   -0.019436936    0.001091959
      2        6          -0.016309540    0.028012177    0.019222486
      3        1          -0.002510847    0.007552093   -0.004416868
      4        1           0.007692361   -0.003208710   -0.011168585
      5        6           0.005990430    0.001811387   -0.001736910
      6        8          -0.005532330    0.000719840    0.002538868
      7        6           0.004574786    0.002346106    0.000252817
      8        8          -0.000702738   -0.003424065    0.000383331
      9        8          -0.000765956   -0.000200623   -0.001885384
     10        6           0.001103260   -0.006733074   -0.014343952
     11        6          -0.007447213    0.006806631   -0.006486827
     12        1          -0.001373380   -0.000757335    0.000580300
     13        6           0.001536909   -0.007030973    0.012142313
     14        1          -0.000162063   -0.003916719   -0.008034408
     15        6          -0.000961229   -0.005175994    0.021783394
     16        1          -0.007263776    0.005744745   -0.008826130
     17        1          -0.002683992   -0.001101521    0.000216730
     18        1          -0.001307547   -0.001566820   -0.000222815
     19        6          -0.000010635   -0.001510006    0.000315523
     20        1          -0.000064795    0.000820911    0.000034182
     21        1           0.000275304   -0.000165148   -0.000439601
     22        1          -0.000197407    0.000414035   -0.001000423
 -------------------------------------------------------------------
 Cartesian Forces:  Max     0.028012177 RMS     0.008017555

 GradGradGradGradGradGradGradGradGradGradGradGradGradGradGradGradGradGrad
 Berny optimization.
 FormGI is forming the generalized inverse of G from B-inverse, IUseBI=4.
 Internal  Forces:  Max     0.022933235 RMS     0.005686029
 Search for a local minimum.
 Step number   1 out of a maximum of  112
 All quantities printed in internal units (Hartrees-Bohrs-Radians)
 Mixed Optimization -- RFO/linear search
 Second derivative matrix not updated -- first step.
 ITU=  0
     Eigenvalues ---    0.00527   0.00544   0.01140   0.01155   0.01202
     Eigenvalues ---    0.01279   0.01326   0.01518   0.01594   0.01611
     Eigenvalues ---    0.01722   0.01791   0.01835   0.02038   0.02343
     Eigenvalues ---    0.02388   0.02889   0.04173   0.06995   0.07202
     Eigenvalues ---    0.08430   0.09369   0.12652   0.13835   0.15733
     Eigenvalues ---    0.15880   0.15929   0.15976   0.15988   0.16000
     Eigenvalues ---    0.16000   0.16000   0.17909   0.22323   0.22761
     Eigenvalues ---    0.24650   0.24867   0.24937   0.24969   0.30678
     Eigenvalues ---    0.32225   0.32384   0.32909   0.33900   0.33927
     Eigenvalues ---    0.34094   0.34097   0.34296   0.34460   0.34843
     Eigenvalues ---    0.35324   0.35368   0.36173   0.42929   0.44916
     Eigenvalues ---    0.54836   0.55314   0.57176   1.03394   1.03511
 RFO step:  Lambda=-2.10551556D-02 EMin= 5.27167845D-03
 Linear search not attempted -- first point.
 Maximum step size (   0.300) exceeded in Quadratic search.
    -- Step size scaled by   0.620
 Iteration  1 RMS(Cart)=  0.18864478 RMS(Int)=  0.00297438
 Iteration  2 RMS(Cart)=  0.00531396 RMS(Int)=  0.00024008
 Iteration  3 RMS(Cart)=  0.00000965 RMS(Int)=  0.00024001
 Iteration  4 RMS(Cart)=  0.00000000 RMS(Int)=  0.00024001
 Variable       Old X    -DE/DX   Delta X   Delta X   Delta X     New X
                                 (Linear)    (Quad)   (Total)
    R1        2.50915   0.02248   0.00000   0.02553   0.02537   2.53452
    R2        2.06621  -0.00907   0.00000  -0.01379  -0.01385   2.05236
    R3        2.79902  -0.00011   0.00000   0.00055   0.00050   2.79952
    R4        2.08000  -0.01337   0.00000  -0.02123  -0.02122   2.05877
    R5        2.80895  -0.00084   0.00000  -0.00058  -0.00061   2.80835
    R6        4.40207   0.01116   0.00000   0.17488   0.17483   4.57690
    R7        4.37256   0.01205   0.00000   0.19106   0.19112   4.56369
    R8        2.27310  -0.00561   0.00000  -0.00329  -0.00329   2.26980
    R9        2.64954   0.00094   0.00000  -0.00035  -0.00026   2.64928
   R10        2.27265  -0.00259   0.00000  -0.00152  -0.00152   2.27113
   R11        2.63474   0.00133   0.00000   0.00021   0.00030   2.63504
   R12        2.76272  -0.00078   0.00000  -0.00385  -0.00381   2.75891
   R13        2.53885   0.01643   0.00000   0.01650   0.01651   2.55536
   R14        2.86632   0.00059   0.00000   0.00112   0.00112   2.86745
   R15        2.05931  -0.00059   0.00000  -0.00099  -0.00099   2.05832
   R16        2.53658   0.01171   0.00000   0.01137   0.01141   2.54799
   R17        2.07142  -0.00603   0.00000  -0.00920  -0.00919   2.06224
   R18        2.05081   0.00013   0.00000   0.00022   0.00022   2.05103
   R19        2.08239  -0.01055   0.00000  -0.01726  -0.01731   2.06507
   R20        2.05151   0.00054   0.00000   0.00089   0.00089   2.05240
   R21        2.06834   0.00080   0.00000   0.00136   0.00136   2.06969
   R22        2.06560   0.00052   0.00000   0.00089   0.00089   2.06649
   R23        2.07167   0.00002   0.00000   0.00003   0.00003   2.07171
    A1        2.26693   0.00180   0.00000   0.00915   0.00857   2.27549
    A2        1.89381  -0.00253   0.00000  -0.00340  -0.00328   1.89052
    A3        2.11403   0.00091   0.00000  -0.00462  -0.00418   2.10985
    A4        2.26935   0.00226   0.00000   0.01044   0.00994   2.27929
    A5        1.89698  -0.00387   0.00000  -0.00685  -0.00675   1.89023
    A6        2.10566   0.00181   0.00000  -0.00258  -0.00220   2.10346
    A7        1.50560   0.01471   0.00000   0.06226   0.06170   1.56730
    A8        1.48915   0.01481   0.00000   0.06872   0.06871   1.55786
    A9        2.28910  -0.00121   0.00000  -0.00177  -0.00198   2.28712
   A10        1.86535   0.00162   0.00000   0.00376   0.00351   1.86886
   A11        2.12672  -0.00028   0.00000   0.00036   0.00014   2.12686
   A12        2.28684  -0.00197   0.00000  -0.00382  -0.00407   2.28277
   A13        1.86341   0.00259   0.00000   0.00604   0.00580   1.86921
   A14        2.13193  -0.00051   0.00000  -0.00049  -0.00074   2.13119
   A15        1.89964   0.00215   0.00000  -0.00108  -0.00092   1.89872
   A16        2.11608   0.00360   0.00000  -0.00214  -0.00155   2.11453
   A17        2.06885  -0.00379   0.00000  -0.00312  -0.00343   2.06541
   A18        2.09162   0.00023   0.00000   0.00603   0.00572   2.09735
   A19        2.02269  -0.00271   0.00000  -0.00033  -0.00074   2.02195
   A20        2.18620   0.00515   0.00000   0.00188   0.00244   2.18863
   A21        2.06076  -0.00214   0.00000   0.00189   0.00152   2.06228
   A22        2.12825   0.00156   0.00000  -0.00305  -0.00262   2.12563
   A23        2.12347  -0.00122   0.00000  -0.00076  -0.00126   2.12221
   A24        2.02975  -0.00049   0.00000   0.00180   0.00128   2.03103
   A25        1.66146   0.02076   0.00000   0.07117   0.07107   1.73253
   A26        2.12767   0.00055   0.00000  -0.00663  -0.00622   2.12145
   A27        2.12637  -0.00069   0.00000   0.00095   0.00056   2.12692
   A28        2.02576  -0.00002   0.00000   0.00343   0.00303   2.02878
   A29        1.55553   0.02293   0.00000   0.07978   0.07974   1.63528
   A30        1.93767  -0.00008   0.00000  -0.00041  -0.00041   1.93726
   A31        1.95387  -0.00048   0.00000  -0.00195  -0.00195   1.95192
   A32        1.92261   0.00164   0.00000   0.00605   0.00605   1.92866
   A33        1.88445   0.00000   0.00000  -0.00078  -0.00079   1.88366
   A34        1.87979  -0.00058   0.00000  -0.00142  -0.00142   1.87837
   A35        1.88291  -0.00055   0.00000  -0.00164  -0.00164   1.88127
    D1        0.03121  -0.00027   0.00000  -0.00073  -0.00067   0.03055
    D2        3.00991   0.00124   0.00000   0.00598   0.00611   3.01601
    D3       -2.96974  -0.00170   0.00000  -0.00953  -0.00958  -2.97932
    D4        0.00895  -0.00019   0.00000  -0.00281  -0.00280   0.00615
    D5        1.45217  -0.00519   0.00000  -0.05292  -0.05300   1.39917
    D6       -1.84533  -0.00382   0.00000  -0.04290  -0.04290  -1.88823
    D7        3.00575   0.00218   0.00000   0.03418   0.03414   3.03989
    D8       -0.06689  -0.00003   0.00000  -0.00599  -0.00600  -0.07289
    D9       -0.00986   0.00079   0.00000   0.02500   0.02502   0.01516
   D10       -3.08250  -0.00143   0.00000  -0.01518  -0.01512  -3.09762
   D11       -1.42843   0.00483   0.00000   0.05041   0.05054  -1.37789
   D12        1.89269   0.00360   0.00000   0.04314   0.04323   1.93592
   D13       -3.04054  -0.00206   0.00000  -0.03115  -0.03110  -3.07164
   D14        0.05234   0.00034   0.00000   0.01069   0.01070   0.06303
   D15       -0.04381  -0.00060   0.00000  -0.02369  -0.02373  -0.06754
   D16        3.04907   0.00181   0.00000   0.01815   0.01806   3.06713
   D17        1.05952   0.00116   0.00000   0.02325   0.02420   1.08372
   D18       -1.16957  -0.00233   0.00000  -0.05073  -0.05153  -1.22110
   D19        0.09993   0.00049   0.00000   0.01287   0.01290   0.11282
   D20       -2.98055  -0.00141   0.00000  -0.02261  -0.02263  -3.00318
   D21       -0.09449  -0.00062   0.00000  -0.01454  -0.01461  -0.10910
   D22        3.00370   0.00147   0.00000   0.02260   0.02261   3.02631
   D23       -2.95466  -0.00138   0.00000  -0.01978  -0.01964  -2.97430
   D24        0.00662   0.00028   0.00000   0.00309   0.00314   0.00976
   D25        0.06318  -0.00099   0.00000  -0.01217  -0.01213   0.05105
   D26        3.02447   0.00066   0.00000   0.01069   0.01064   3.03511
   D27       -0.26040  -0.00017   0.00000   0.00230   0.00220  -0.25820
   D28        2.97305   0.00206   0.00000   0.03268   0.03259   3.00565
   D29        3.00653  -0.00029   0.00000  -0.00476  -0.00479   3.00174
   D30       -0.04320   0.00194   0.00000   0.02562   0.02560  -0.01759
   D31       -2.15072  -0.00025   0.00000  -0.00564  -0.00564  -2.15636
   D32       -0.04333  -0.00064   0.00000  -0.00827  -0.00826  -0.05159
   D33        2.05176  -0.00053   0.00000  -0.00752  -0.00752   2.04424
   D34        0.86891   0.00038   0.00000   0.00127   0.00127   0.87017
   D35        2.97630  -0.00001   0.00000  -0.00136  -0.00136   2.97494
   D36       -1.21180   0.00010   0.00000  -0.00061  -0.00062  -1.21242
   D37        0.23237   0.00011   0.00000   0.00252   0.00270   0.23507
   D38       -2.97433  -0.00260   0.00000  -0.03568  -0.03551  -3.00984
   D39       -3.09310   0.00177   0.00000   0.02563   0.02575  -3.06735
   D40       -0.01661  -0.00095   0.00000  -0.01257  -0.01247  -0.02908
   D41       -1.92491  -0.00267   0.00000  -0.04498  -0.04481  -1.96971
   D42        1.27849  -0.00006   0.00000  -0.00864  -0.00841   1.27009
   D43        2.01729   0.00115   0.00000   0.01840   0.01837   2.03566
   D44       -1.21118  -0.00099   0.00000  -0.01042  -0.01049  -1.22167
         Item               Value     Threshold  Converged?
 Maximum Force            0.022933     0.000450     NO 
 RMS     Force            0.005686     0.000300     NO 
 Maximum Displacement     0.600540     0.001800     NO 
 RMS     Displacement     0.190084     0.001200     NO 
 Predicted change in Energy=-1.022718D-02
 GradGradGradGradGradGradGradGradGradGradGradGradGradGradGradGradGradGrad

                          Input orientation:                          
 ---------------------------------------------------------------------
 Center     Atomic      Atomic             Coordinates (Angstroms)
 Number     Number       Type             X           Y           Z
 ---------------------------------------------------------------------
      1          6           0        1.513922   -0.179179    1.110051
      2          6           0        0.651778    0.808651    1.392443
      3          1           0        1.905223   -0.972896    1.739676
      4          1           0        0.154443    1.070270    2.325785
      5          6           0        2.056789    0.050928   -0.249001
      6          8           0        2.915337   -0.522479   -0.862845
      7          6           0        0.589650    1.722595    0.222239
      8          8           0        0.002362    2.759464    0.066068
      9          8           0        1.391967    1.167881   -0.774226
     10          6           0       -1.889608   -0.709691   -0.145092
     11          6           0       -0.969723   -1.785095   -0.503946
     12          1           0       -0.907280   -2.022270   -1.565188
     13          6           0       -0.088147   -2.370234    0.331791
     14          1           0       -0.139690   -2.228857    1.412655
     15          6           0       -1.912552   -0.197082    1.106008
     16          1           0       -1.432045   -0.709810    1.942914
     17          1           0       -2.499837    0.682013    1.354742
     18          1           0        0.650127   -3.080402   -0.026833
     19          6           0       -2.715926   -0.071274   -1.246038
     20          1           0       -2.550633    1.010767   -1.283529
     21          1           0       -2.471524   -0.483347   -2.229039
     22          1           0       -3.785019   -0.237791   -1.069445
 ---------------------------------------------------------------------
                    Distance matrix (angstroms):
                    1          2          3          4          5
     1  C    0.000000
     2  C    1.341211   0.000000
     3  H    1.086062   2.205812   0.000000
     4  H    2.210727   1.089456   2.753776   0.000000
     5  C    1.481443   2.289659   2.241879   3.359687   0.000000
     6  O    2.444205   3.461493   2.827777   4.508520   1.201127
     7  C    2.293301   1.486112   3.361401   2.244959   2.273551
     8  O    3.465593   2.446769   4.511358   2.825390   3.414104
     9  O    2.319471   2.317624   3.341566   3.339321   1.401940
    10  C    3.666175   3.335868   4.245276   3.667647   4.020371
    11  C    3.369339   3.599038   3.736150   4.174234   3.549049
    12  H    4.051679   4.380908   4.464693   5.082394   3.849182
    13  C    2.823656   3.431877   2.812156   3.983958   3.286350
    14  H    2.650884   3.138995   2.421994   3.435776   3.575338
    15  C    3.426523   2.769356   3.947003   2.714130   4.201574
    16  H    3.107080   2.636486   3.353785   2.414998   4.189889
    17  H    4.112394   3.154383   4.721383   2.852871   4.871663
    18  H    3.233534   4.139937   3.022814   4.796727   3.439954
    19  C    4.842976   4.367755   5.575162   4.722294   4.877277
    20  H    4.864751   4.178170   5.738409   4.510889   4.818700
    21  H    5.208245   4.953727   5.928430   5.482322   4.971078
    22  H    5.729957   5.180839   6.388302   5.362646   5.906201
                    6          7          8          9         10
     6  O    0.000000
     7  C    3.409778   0.000000
     8  O    4.485471   1.201829   0.000000
     9  O    2.277241   1.394404   2.273814   0.000000
    10  C    4.861864   3.492516   3.957168   3.832731   0.000000
    11  C    4.100817   3.906773   4.682188   3.790871   1.459952
    12  H    4.165940   4.411316   5.133559   4.011138   2.168988
    13  C    3.723207   4.150019   5.137373   3.991525   2.496013
    14  H    4.174065   4.190824   5.168832   4.320447   2.792249
    15  C    5.224058   3.275243   3.672810   4.039586   1.352237
    16  H    5.177558   3.600634   4.197135   4.345529   2.137553
    17  H    5.974329   3.451130   3.498211   4.462590   2.135116
    18  H    3.517536   4.809831   5.876416   4.376852   3.476278
    19  C    5.662292   4.037405   4.138090   4.316584   1.517387
    20  H    5.692508   3.554632   3.375964   3.978463   2.166326
    21  H    5.557544   4.499526   4.680113   4.446302   2.175476
    22  H    6.709583   4.964805   4.961571   5.372546   2.160949
                   11         12         13         14         15
    11  C    0.000000
    12  H    1.089214   0.000000
    13  C    1.348339   2.095373   0.000000
    14  H    2.135237   3.082113   1.091288   0.000000
    15  C    2.450034   3.387798   2.941166   2.713887   0.000000
    16  H    2.712398   3.782157   2.675590   2.063700   1.092790
    17  H    3.447114   4.286651   4.022299   3.747908   1.086085
    18  H    2.128231   2.431397   1.085356   1.849612   4.020471
    19  C    2.556778   2.679449   3.831447   4.284951   2.488646
    20  H    3.305129   3.461107   4.483778   4.855638   2.752441
    21  H    2.631711   2.292563   3.974755   4.663281   3.393661
    22  H    3.261876   3.422209   4.491952   4.838759   2.870607
                   16         17         18         19         20
    16  H    0.000000
    17  H    1.850217   0.000000
    18  H    3.719549   5.097724   0.000000
    19  C    3.496498   2.716283   4.676711   0.000000
    20  H    3.823815   2.659159   5.344325   1.095235   0.000000
    21  H    4.305461   3.768601   4.619427   1.093539   1.769923
    22  H    3.851441   2.893858   5.370102   1.096299   1.768739
                   21         22
    21  H    0.000000
    22  H    1.769244   0.000000
 Stoichiometry    C9H10O3
 Framework group  C1[X(C9H10O3)]
 Deg. of freedom    60
 Full point group                 C1      NOp   1
 Largest Abelian subgroup         C1      NOp   1
 Largest concise Abelian subgroup C1      NOp   1
                         Standard orientation:                         
 ---------------------------------------------------------------------
 Center     Atomic      Atomic             Coordinates (Angstroms)
 Number     Number       Type             X           Y           Z
 ---------------------------------------------------------------------
      1          6           0        1.356441   -0.596091    1.047229
      2          6           0        0.841378    0.615462    1.303539
      3          1           0        1.524576   -1.442866    1.706193
      4          1           0        0.490272    1.053425    2.237256
      5          6           0        1.876249   -0.597088   -0.340025
      6          8           0        2.494802   -1.426651   -0.949879
      7          6           0        0.996517    1.455336    0.087367
      8          8           0        0.736761    2.612723   -0.105960
      9          8           0        1.548352    0.644074   -0.903439
     10          6           0       -2.108021   -0.137617   -0.060989
     11          6           0       -1.567626   -1.453184   -0.390709
     12          1           0       -1.630226   -1.743256   -1.438720
     13          6           0       -0.859960   -2.238936    0.445843
     14          1           0       -0.814458   -2.042610    1.518361
     15          6           0       -1.916707    0.411316    1.159919
     16          1           0       -1.569955   -0.185425    2.007182
     17          1           0       -2.203583    1.435583    1.379368
     18          1           0       -0.384282   -3.152011    0.102295
     19          6           0       -2.760094    0.671080   -1.167006
     20          1           0       -2.282958    1.651545   -1.269818
     21          1           0       -2.697296    0.163207   -2.133417
     22          1           0       -3.820472    0.839579   -0.945468
 ---------------------------------------------------------------------
 Rotational constants (GHZ):           1.1740278           0.8109265           0.6281088
 Standard basis: 6-31G(d) (6D, 7F)
 There are   200 symmetry adapted cartesian basis functions of A   symmetry.
 There are   200 symmetry adapted basis functions of A   symmetry.
   200 basis functions,   376 primitive gaussians,   200 cartesian basis functions
    44 alpha electrons       44 beta electrons
       nuclear repulsion energy       685.6543601308 Hartrees.
 NAtoms=   22 NActive=   22 NUniq=   22 SFac= 1.00D+00 NAtFMM=   60 NAOKFM=F Big=F
 Integral buffers will be    131072 words long.
 Raffenetti 2 integral format.
 Two-electron integral symmetry is turned on.
 One-electron integrals computed using PRISM.
 NBasis=   200 RedAO= T EigKep=  1.07D-03  NBF=   200
 NBsUse=   200 1.00D-06 EigRej= -1.00D+00 NBFU=   200
 Initial guess from the checkpoint file:  "DATS_rct.chk"
 B after Tr=     0.000000    0.000000    0.000000
         Rot=    0.991002    0.012956   -0.006873    0.133038 Ang=  15.38 deg.
 ExpMin= 1.61D-01 ExpMax= 5.48D+03 ExpMxC= 8.25D+02 IAcc=3 IRadAn=         5 AccDes= 0.00D+00
 Harris functional with IExCor=  402 and IRadAn=       5 diagonalized for initial guess.
 HarFok:  IExCor=  402 AccDes= 0.00D+00 IRadAn=         5 IDoV= 1 UseB2=F ITyADJ=14
 ICtDFT=  3500011 ScaDFX=  1.000000  1.000000  1.000000  1.000000
 FoFCou: FMM=F IPFlag=           0 FMFlag=      100000 FMFlg1=           0
         NFxFlg=           0 DoJE=T BraDBF=F KetDBF=T FulRan=T
         wScrn=  0.000000 ICntrl=       500 IOpCl=  0 I1Cent=   200000004 NGrid=           0
         NMat0=    1 NMatS0=      1 NMatT0=    0 NMatD0=    1 NMtDS0=    0 NMtDT0=    0
 Petite list used in FoFCou.
 Requested convergence on RMS density matrix=1.00D-08 within 128 cycles.
 Requested convergence on MAX density matrix=1.00D-06.
 Requested convergence on             energy=1.00D-06.
 No special actions if energy rises.
 Integral accuracy reduced to 1.0D-05 until final iterations.
 Initial convergence to 1.0D-05 achieved.  Increase integral accuracy.
 SCF Done:  E(RB3LYP) =  -574.587068620     A.U. after   13 cycles
            NFock= 13  Conv=0.99D-08     -V/T= 2.0092
 Calling FoFJK, ICntrl=      2127 FMM=F ISym2X=0 I1Cent= 0 IOpClX= 0 NMat=1 NMatS=1 NMatT=0.
 ***** Axes restored to original set *****
 -------------------------------------------------------------------
 Center     Atomic                   Forces (Hartrees/Bohr)
 Number     Number              X              Y              Z
 -------------------------------------------------------------------
      1        6           0.008505576   -0.003064707    0.003934669
      2        6          -0.000747226    0.009895022    0.008967872
      3        1          -0.001920538    0.003407635   -0.000931431
      4        1           0.003479096   -0.003201644   -0.004653055
      5        6          -0.001900109    0.001111849   -0.005774409
      6        8          -0.003115459    0.000275794    0.002775759
      7        6          -0.002117055   -0.001873335   -0.004766260
      8        8           0.000640640   -0.003056194    0.001671201
      9        8           0.003031593    0.001207301    0.000175057
     10        6           0.001113711    0.005629292    0.001478066
     11        6           0.005620590    0.000202136   -0.000192548
     12        1          -0.000499403   -0.000736667    0.000208987
     13        6          -0.004216488   -0.005541998    0.002133679
     14        1           0.001417053   -0.001152661   -0.004739764
     15        6          -0.004241429   -0.005489824    0.005237613
     16        1          -0.002350429    0.004454089   -0.004378907
     17        1          -0.001931439   -0.000871977   -0.000072684
     18        1          -0.001045540   -0.001100201   -0.000334427
     19        6           0.000640772   -0.000665730    0.000554469
     20        1          -0.000340293    0.000310576   -0.000075515
     21        1           0.000121247    0.000067662   -0.000411591
     22        1          -0.000144870    0.000193584   -0.000806780
 -------------------------------------------------------------------
 Cartesian Forces:  Max     0.009895022 RMS     0.003306666

 GradGradGradGradGradGradGradGradGradGradGradGradGradGradGradGradGradGrad
 Berny optimization.
 Using GEDIIS/GDIIS optimizer.
 FormGI is forming the generalized inverse of G from B-inverse, IUseBI=4.
 Internal  Forces:  Max     0.005322843 RMS     0.001955085
 Search for a local minimum.
 Step number   2 out of a maximum of  112
 All quantities printed in internal units (Hartrees-Bohrs-Radians)
 Mixed Optimization -- RFO/linear search
 Update second derivatives using D2CorX and points    1    2
 DE= -6.49D-03 DEPred=-1.02D-02 R= 6.35D-01
 TightC=F SS=  1.41D+00  RLast= 3.39D-01 DXNew= 5.0454D-01 1.0159D+00
 Trust test= 6.35D-01 RLast= 3.39D-01 DXMaxT set to 5.05D-01
 ITU=  1  0
 Use linear search instead of GDIIS.
 Linear search step of   0.526 exceeds DXMaxT=   0.505 but not scaled.
 Quartic linear search produced a step of  1.75509.
 Iteration  1 RMS(Cart)=  0.29429912 RMS(Int)=  0.01919932
 Iteration  2 RMS(Cart)=  0.03355890 RMS(Int)=  0.00113812
 Iteration  3 RMS(Cart)=  0.00011960 RMS(Int)=  0.00113650
 Iteration  4 RMS(Cart)=  0.00000039 RMS(Int)=  0.00113650
 Variable       Old X    -DE/DX   Delta X   Delta X   Delta X     New X
                                 (Linear)    (Quad)   (Total)
    R1        2.53452   0.00399   0.04453   0.00000   0.04354   2.57806
    R2        2.05236  -0.00209  -0.02431   0.00000  -0.02481   2.02755
    R3        2.79952   0.00168   0.00088   0.00000   0.00067   2.80019
    R4        2.05877  -0.00459  -0.03725   0.00000  -0.03736   2.02141
    R5        2.80835   0.00064  -0.00107   0.00000  -0.00118   2.80716
    R6        4.57690   0.00358   0.30684   0.00000   0.30666   4.88357
    R7        4.56369   0.00333   0.33544   0.00000   0.33575   4.89943
    R8        2.26980  -0.00378  -0.00578   0.00000  -0.00578   2.26402
    R9        2.64928  -0.00175  -0.00046   0.00000  -0.00005   2.64923
   R10        2.27113  -0.00317  -0.00267   0.00000  -0.00267   2.26846
   R11        2.63504  -0.00034   0.00053   0.00000   0.00099   2.63603
   R12        2.75891   0.00532  -0.00669   0.00000  -0.00625   2.75266
   R13        2.55536   0.00039   0.02897   0.00000   0.02916   2.58451
   R14        2.86745   0.00035   0.00197   0.00000   0.00197   2.86941
   R15        2.05832  -0.00007  -0.00174   0.00000  -0.00174   2.05657
   R16        2.54799  -0.00088   0.02002   0.00000   0.02033   2.56833
   R17        2.06224  -0.00315  -0.01612   0.00000  -0.01616   2.04607
   R18        2.05103   0.00012   0.00038   0.00000   0.00038   2.05141
   R19        2.06507  -0.00483  -0.03038   0.00000  -0.03070   2.03437
   R20        2.05240   0.00032   0.00156   0.00000   0.00156   2.05397
   R21        2.06969   0.00026   0.00239   0.00000   0.00239   2.07208
   R22        2.06649   0.00037   0.00156   0.00000   0.00156   2.06805
   R23        2.07171  -0.00002   0.00006   0.00000   0.00006   2.07176
    A1        2.27549   0.00075   0.01503   0.00000   0.01210   2.28759
    A2        1.89052  -0.00132  -0.00576   0.00000  -0.00515   1.88537
    A3        2.10985   0.00075  -0.00734   0.00000  -0.00518   2.10467
    A4        2.27929   0.00084   0.01744   0.00000   0.01500   2.29428
    A5        1.89023  -0.00178  -0.01184   0.00000  -0.01133   1.87890
    A6        2.10346   0.00119  -0.00386   0.00000  -0.00203   2.10142
    A7        1.56730   0.00295   0.10829   0.00000   0.10490   1.67220
    A8        1.55786   0.00304   0.12060   0.00000   0.11989   1.67775
    A9        2.28712  -0.00281  -0.00348   0.00000  -0.00452   2.28260
   A10        1.86886   0.00206   0.00616   0.00000   0.00494   1.87380
   A11        2.12686   0.00075   0.00024   0.00000  -0.00080   2.12606
   A12        2.28277  -0.00295  -0.00714   0.00000  -0.00834   2.27443
   A13        1.86921   0.00242   0.01018   0.00000   0.00899   1.87820
   A14        2.13119   0.00052  -0.00130   0.00000  -0.00251   2.12868
   A15        1.89872  -0.00119  -0.00162   0.00000  -0.00089   1.89783
   A16        2.11453   0.00265  -0.00272   0.00000   0.00024   2.11478
   A17        2.06541  -0.00253  -0.00602   0.00000  -0.00758   2.05784
   A18        2.09735  -0.00006   0.01005   0.00000   0.00851   2.10586
   A19        2.02195  -0.00105  -0.00130   0.00000  -0.00329   2.01866
   A20        2.18863   0.00287   0.00427   0.00000   0.00704   2.19567
   A21        2.06228  -0.00161   0.00267   0.00000   0.00080   2.06307
   A22        2.12563  -0.00076  -0.00460   0.00000  -0.00281   2.12282
   A23        2.12221   0.00003  -0.00222   0.00000  -0.00444   2.11776
   A24        2.03103   0.00088   0.00224   0.00000  -0.00022   2.03081
   A25        1.73253   0.00373   0.12474   0.00000   0.12427   1.85680
   A26        2.12145  -0.00069  -0.01092   0.00000  -0.00917   2.11228
   A27        2.12692  -0.00005   0.00098   0.00000  -0.00079   2.12613
   A28        2.02878   0.00091   0.00531   0.00000   0.00345   2.03224
   A29        1.63528   0.00424   0.13996   0.00000   0.13981   1.77509
   A30        1.93726   0.00022  -0.00072   0.00000  -0.00073   1.93653
   A31        1.95192  -0.00011  -0.00343   0.00000  -0.00343   1.94849
   A32        1.92866   0.00110   0.01061   0.00000   0.01061   1.93927
   A33        1.88366  -0.00021  -0.00138   0.00000  -0.00139   1.88227
   A34        1.87837  -0.00055  -0.00249   0.00000  -0.00251   1.87586
   A35        1.88127  -0.00051  -0.00288   0.00000  -0.00287   1.87840
    D1        0.03055  -0.00017  -0.00117   0.00000  -0.00083   0.02972
    D2        3.01601   0.00179   0.01072   0.00000   0.01143   3.02744
    D3       -2.97932  -0.00176  -0.01681   0.00000  -0.01709  -2.99641
    D4        0.00615   0.00021  -0.00492   0.00000  -0.00483   0.00132
    D5        1.39917   0.00097  -0.09302   0.00000  -0.09356   1.30562
    D6       -1.88823   0.00261  -0.07529   0.00000  -0.07536  -1.96359
    D7        3.03989   0.00082   0.05993   0.00000   0.05975   3.09964
    D8       -0.07289   0.00071  -0.01053   0.00000  -0.01057  -0.08346
    D9        0.01516  -0.00061   0.04392   0.00000   0.04396   0.05912
   D10       -3.09762  -0.00072  -0.02654   0.00000  -0.02636  -3.12398
   D11       -1.37789  -0.00081   0.08871   0.00000   0.08970  -1.28819
   D12        1.93592  -0.00275   0.07587   0.00000   0.07655   2.01248
   D13       -3.07164  -0.00071  -0.05458   0.00000  -0.05434  -3.12598
   D14        0.06303  -0.00110   0.01877   0.00000   0.01876   0.08179
   D15       -0.06754   0.00102  -0.04165   0.00000  -0.04176  -0.10930
   D16        3.06713   0.00062   0.03170   0.00000   0.03133   3.09846
   D17        1.08372   0.00023   0.04247   0.00000   0.04641   1.13012
   D18       -1.22110   0.00058  -0.09044   0.00000  -0.09353  -1.31463
   D19        0.11282  -0.00147   0.02264   0.00000   0.02272   0.13555
   D20       -3.00318  -0.00150  -0.03972   0.00000  -0.03984  -3.04303
   D21       -0.10910   0.00156  -0.02563   0.00000  -0.02589  -0.13498
   D22        3.02631   0.00119   0.03969   0.00000   0.03977   3.06608
   D23       -2.97430  -0.00148  -0.03447   0.00000  -0.03377  -3.00807
   D24        0.00976  -0.00013   0.00551   0.00000   0.00579   0.01556
   D25        0.05105  -0.00081  -0.02130   0.00000  -0.02108   0.02996
   D26        3.03511   0.00054   0.01868   0.00000   0.01848   3.05359
   D27       -0.25820   0.00261   0.00386   0.00000   0.00347  -0.25473
   D28        3.00565   0.00080   0.05720   0.00000   0.05675   3.06240
   D29        3.00174   0.00209  -0.00840   0.00000  -0.00848   2.99326
   D30       -0.01759   0.00028   0.04494   0.00000   0.04479   0.02720
   D31       -2.15636  -0.00053  -0.00990   0.00000  -0.00986  -2.16622
   D32       -0.05159  -0.00072  -0.01450   0.00000  -0.01446  -0.06606
   D33        2.04424  -0.00069  -0.01320   0.00000  -0.01318   2.03106
   D34        0.87017   0.00032   0.00222   0.00000   0.00219   0.87237
   D35        2.97494   0.00013  -0.00238   0.00000  -0.00241   2.97253
   D36       -1.21242   0.00016  -0.00108   0.00000  -0.00112  -1.21354
   D37        0.23507  -0.00258   0.00474   0.00000   0.00557   0.24064
   D38       -3.00984  -0.00074  -0.06233   0.00000  -0.06149  -3.07133
   D39       -3.06735  -0.00115   0.04519   0.00000   0.04573  -3.02163
   D40       -0.02908   0.00070  -0.02188   0.00000  -0.02134  -0.05041
   D41       -1.96971   0.00441  -0.07865   0.00000  -0.07776  -2.04748
   D42        1.27009   0.00270  -0.01475   0.00000  -0.01364   1.25645
   D43        2.03566  -0.00431   0.03224   0.00000   0.03200   2.06766
   D44       -1.22167  -0.00266  -0.01841   0.00000  -0.01876  -1.24043
         Item               Value     Threshold  Converged?
 Maximum Force            0.005323     0.000450     NO 
 RMS     Force            0.001955     0.000300     NO 
 Maximum Displacement     1.020321     0.001800     NO 
 RMS     Displacement     0.323958     0.001200     NO 
 Predicted change in Energy=-1.284042D-02
 GradGradGradGradGradGradGradGradGradGradGradGradGradGradGradGradGradGrad

                          Input orientation:                          
 ---------------------------------------------------------------------
 Center     Atomic      Atomic             Coordinates (Angstroms)
 Number     Number       Type             X           Y           Z
 ---------------------------------------------------------------------
      1          6           0        1.744452   -0.079089    1.171036
      2          6           0        0.891100    0.949251    1.445797
      3          1           0        2.001269   -0.952729    1.738471
      4          1           0        0.283551    1.155871    2.301612
      5          6           0        2.470947    0.249261   -0.078010
      6          8           0        3.333441   -0.343982   -0.660703
      7          6           0        1.049706    1.965002    0.373528
      8          8           0        0.511000    3.027310    0.224204
      9          8           0        1.931898    1.444773   -0.573532
     10          6           0       -2.117893   -0.817946   -0.211723
     11          6           0       -1.201088   -1.889447   -0.576648
     12          1           0       -1.242684   -2.212007   -1.615207
     13          6           0       -0.232926   -2.413374    0.220417
     14          1           0       -0.206255   -2.217494    1.284953
     15          6           0       -2.055012   -0.220308    1.016846
     16          1           0       -1.497761   -0.666122    1.822867
     17          1           0       -2.684413    0.627519    1.274567
     18          1           0        0.454166   -3.168768   -0.147988
     19          6           0       -3.055607   -0.289450   -1.282707
     20          1           0       -2.937605    0.793501   -1.407599
     21          1           0       -2.867851   -0.761283   -2.252116
     22          1           0       -4.102822   -0.478325   -1.018874
 ---------------------------------------------------------------------
                    Distance matrix (angstroms):
                    1          2          3          4          5
     1  C    0.000000
     2  C    1.364253   0.000000
     3  H    1.072933   2.221635   0.000000
     4  H    2.222062   1.069685   2.777387   0.000000
     5  C    1.481797   2.303886   2.228223   3.356969   0.000000
     6  O    2.439328   3.474884   2.810923   4.508513   1.198067
     7  C    2.301521   1.485486   3.358824   2.226925   2.273231
     8  O    3.473846   2.440307   4.511609   2.805288   3.413251
     9  O    2.323964   2.325187   3.331394   3.326705   1.401915
    10  C    4.168409   3.863210   4.559487   3.997467   4.713200
    11  C    3.874016   4.065186   4.061073   4.445503   4.278616
    12  H    4.608196   4.890433   4.832822   5.386415   4.712947
    13  C    3.203527   3.751298   3.070765   4.163848   3.806522
    14  H    2.896724   3.355344   2.584274   3.557120   3.887153
    15  C    3.805213   3.198663   4.184567   3.002228   4.680119
    16  H    3.358785   2.908310   3.511763   2.592668   4.494652
    17  H    4.486074   3.594040   4.966690   3.184775   5.343246
    18  H    3.598719   4.437245   3.295919   4.973143   3.969285
    19  C    5.394967   4.955362   5.927854   5.107473   5.681928
    20  H    5.415942   4.777563   6.110610   4.925993   5.596109
    21  H    5.784176   5.543483   6.298394   5.860312   5.852410
    22  H    6.256653   5.749072   6.714756   5.739033   6.680497
                    6          7          8          9         10
     6  O    0.000000
     7  C    3.408296   0.000000
     8  O    4.484957   1.200416   0.000000
     9  O    2.274107   1.394928   2.271510   0.000000
    10  C    5.490288   4.256877   4.678364   4.653128   0.000000
    11  C    4.791397   4.563517   5.267552   4.575220   1.456645
    12  H    5.034036   5.163093   5.823167   4.953292   2.163138
    13  C    4.216364   4.564950   5.491309   4.494676   2.507038
    14  H    4.452535   4.461100   5.398853   4.630104   2.802345
    15  C    5.644900   3.850808   4.214229   4.604047   1.367665
    16  H    5.441728   3.938653   4.498031   4.686274   2.132410
    17  H    6.395596   4.067478   4.131939   5.039216   2.149273
    18  H    4.066020   5.194444   6.207506   4.863079   3.485099
    19  C    6.419486   4.967824   5.098270   5.327820   1.518428
    20  H    6.416988   4.521447   4.421035   4.983160   2.167673
    21  H    6.415821   5.447375   5.648206   5.542736   2.174592
    22  H    7.446096   5.870024   5.926387   6.349368   2.169511
                   11         12         13         14         15
    11  C    0.000000
    12  H    1.088292   0.000000
    13  C    1.359099   2.104680   0.000000
    14  H    2.136087   3.079796   1.082736   0.000000
    15  C    2.460576   3.399183   2.960378   2.734692   0.000000
    16  H    2.709652   3.778251   2.687107   2.089043   1.076544
    17  H    3.458666   4.300266   4.045745   3.772994   1.086912
    18  H    2.135481   2.438734   1.085559   1.842388   4.043047
    19  C    2.549068   2.663357   3.839006   4.292906   2.508768
    20  H    3.302148   3.456724   4.499975   4.876085   2.772132
    21  H    2.618787   2.269674   3.973117   4.659990   3.411668
    22  H    3.256822   3.397301   4.500706   4.849285   2.899009
                   16         17         18         19         20
    16  H    0.000000
    17  H    1.839098   0.000000
    18  H    3.735977   5.127001   0.000000
    19  C    3.494762   2.741947   4.679377   0.000000
    20  H    3.826168   2.699198   5.365660   1.096497   0.000000
    21  H    4.300197   3.794722   4.610763   1.094364   1.770714
    22  H    3.859676   2.914558   5.363121   1.096331   1.768157
                   21         22
    21  H    0.000000
    22  H    1.768080   0.000000
 Stoichiometry    C9H10O3
 Framework group  C1[X(C9H10O3)]
 Deg. of freedom    60
 Full point group                 C1      NOp   1
 Largest Abelian subgroup         C1      NOp   1
 Largest concise Abelian subgroup C1      NOp   1
                         Standard orientation:                         
 ---------------------------------------------------------------------
 Center     Atomic      Atomic             Coordinates (Angstroms)
 Number     Number       Type             X           Y           Z
 ---------------------------------------------------------------------
      1          6           0        1.426687   -0.729457    1.017011
      2          6           0        1.099081    0.577781    1.229111
      3          1           0        1.360961   -1.585881    1.659975
      4          1           0        0.718289    1.081257    2.092671
      5          6           0        2.093785   -0.826658   -0.302556
      6          8           0        2.575945   -1.766193   -0.868382
      7          6           0        1.548799    1.352846    0.044333
      8          8           0        1.477792    2.528568   -0.187260
      9          8           0        2.041815    0.444170   -0.892184
     10          6           0       -2.519387    0.102194   -0.037734
     11          6           0       -2.160887   -1.277252   -0.338436
     12          1           0       -2.434941   -1.629782   -1.330906
     13          6           0       -1.415300   -2.095035    0.450539
     14          1           0       -1.203802   -1.849215    1.483572
     15          6           0       -2.094719    0.709417    1.111807
     16          1           0       -1.689321    0.133819    1.926232
     17          1           0       -2.294368    1.758704    1.313086
     18          1           0       -1.136790   -3.092739    0.125797
     19          6           0       -3.263128    0.891060   -1.100825
     20          1           0       -2.727244    1.814505   -1.350591
     21          1           0       -3.382891    0.313078   -2.022360
     22          1           0       -4.263901    1.174528   -0.754358
 ---------------------------------------------------------------------
 Rotational constants (GHZ):           1.1912590           0.6066109           0.4901063
 Standard basis: 6-31G(d) (6D, 7F)
 There are   200 symmetry adapted cartesian basis functions of A   symmetry.
 There are   200 symmetry adapted basis functions of A   symmetry.
   200 basis functions,   376 primitive gaussians,   200 cartesian basis functions
    44 alpha electrons       44 beta electrons
       nuclear repulsion energy       652.9855027648 Hartrees.
 NAtoms=   22 NActive=   22 NUniq=   22 SFac= 1.00D+00 NAtFMM=   60 NAOKFM=F Big=F
 Integral buffers will be    131072 words long.
 Raffenetti 2 integral format.
[...]
 383,0.00006898,-0.00004182,0.00013360,0.00016883,-0.00207414,-0.006099
 44,-0.02508749,-0.00183072,-0.08955526,-0.09150524,-0.00595298,0.08828
 770,-0.00005709,-0.00006894,0.00001793,-0.00005685,-0.00003643,0.00009
 437,0.00005717,0.00001173,0.00001393,0.00002167,0.00002878,0.00002280,
 0.00012950,-0.00013151,-0.00039145,-0.00003920,0.00012368,0.00021814,0
 .00011043,0.00003342,-0.00027595,-0.00004843,-0.00001651,0.00008148,-0
 .00005084,0.00008247,0.00020342,-0.00106602,-0.00172359,-0.00566275,-0
 .02808060,-0.09166847,-0.28910717,0.03413122,0.10058035,0.30871640,0.0
 0025751,0.00065945,0.00008036,0.00049512,-0.00087863,0.00029413,0.0001
 6871,-0.00003048,0.00029198,-0.00005458,-0.00006254,0.00000123,-0.0002
 2222,0.00243217,0.00042593,-0.00042442,-0.00135319,-0.00005630,-0.0015
 3902,0.00135047,-0.00064262,0.00109300,-0.00100716,0.00028731,0.000517
 53,-0.00072634,-0.00008653,-0.01303254,0.02044262,-0.00373719,-0.22974
 264,0.14683806,-0.18366597,0.00050216,0.00319866,-0.00237478,0.3959891
 2,0.00003335,-0.00017015,0.00000995,0.00004812,-0.00010603,-0.00000955
 ,-0.00013290,-0.00002999,0.00003489,0.00003920,-0.00001889,0.00002298,
 -0.00037656,-0.00025189,0.00027610,0.00004368,-0.00008992,-0.00006155,
 0.00048741,-0.00026586,-0.00005339,-0.00030671,0.00000160,-0.00000803,
 -0.00013730,0.00015467,-0.00004290,0.02462040,-0.01950010,0.01114033,0
 .15103850,-0.18826164,0.12170121,-0.00549889,0.00957016,-0.00865215,-0
 .28986370,0.53462278,0.00024681,0.00129637,0.00037821,0.00103791,-0.00
 047945,-0.00035661,-0.00035548,-0.00005606,0.00001782,-0.00006383,-0.0
 0017618,-0.00002688,0.00023712,0.00083377,0.00037039,-0.00018443,-0.00
 028858,0.00002307,0.00026074,0.00000465,0.00005539,-0.00004020,-0.0003
 5122,0.00001517,-0.00011989,0.00002463,-0.00039486,-0.00253269,0.00911
 563,0.01719107,-0.17531193,0.11092222,-0.28127851,-0.02211431,0.015330
 04,-0.01747458,0.20814872,0.03765365,0.66431320,-0.00016018,-0.0004203
 8,0.00013281,-0.00011850,0.00013518,-0.00022848,-0.00019360,-0.0000866
 3,-0.00005908,0.00002864,0.00000738,-0.00000390,0.00003729,-0.00026570
 ,0.00019418,0.00000594,0.00012022,-0.00007310,0.00034392,-0.00027190,0
 .00032263,-0.00024600,0.00022837,-0.00011042,-0.00013884,0.00008957,-0
 .00014760,-0.00467641,-0.00252611,0.00311597,0.00323835,-0.00907242,-0
 .02013616,0.00515286,0.00706596,-0.00449376,-0.05152786,-0.00321924,-0
 .04671640,0.04432453,-0.00029625,-0.00019902,-0.00006571,-0.00013081,-
 0.00010462,-0.00006838,-0.00001032,0.00001918,-0.00000748,-0.00002519,
 -0.00003702,-0.00003184,-0.00000530,-0.00012658,0.00018009,0.00004136,
 0.00004651,-0.00006882,0.00011633,-0.00021458,0.00016405,-0.00008360,0
 .00014207,-0.00005814,-0.00004169,0.00002460,-0.00005426,-0.00402134,-
 0.00086883,0.00179968,0.00310406,0.00919641,0.01430364,0.00691243,0.00
 282621,0.00031148,-0.00521306,-0.08282573,-0.09139103,0.00287745,0.076
 00817,0.00000370,-0.00028340,-0.00015463,-0.00029514,-0.00026736,0.000
 40285,0.00019702,0.00000519,0.00013842,0.00002079,0.00001855,0.0000375
 5,0.00014188,0.00004187,-0.00060410,-0.00001790,0.00006349,0.00023694,
 -0.00027482,0.00038261,-0.00063893,0.00020483,-0.00019555,0.00017747,0
 .00004217,0.00001326,0.00034969,0.00354621,-0.00085050,-0.00126300,-0.
 00350832,-0.00710748,-0.01687499,-0.00516284,0.00009889,0.00021105,-0.
 04847345,-0.08879260,-0.29738079,0.05518766,0.09776125,0.31797627,-0.0
 0035060,0.00020568,0.00050091,0.00028369,0.00006435,-0.00004758,0.0000
 3486,0.00000293,0.00006068,0.00005345,-0.00005518,0.00019114,-0.000024
 38,0.00035492,-0.00091601,-0.00025963,0.00001350,0.00048359,0.00065283
 ,-0.00052823,-0.00086698,-0.00065143,-0.00014403,0.00049697,0.00016140
 ,0.00010125,0.00041862,-0.09304191,0.05298309,0.10223117,-0.00256102,0
 .01172678,0.01801395,-0.00049738,0.00294272,-0.00030484,-0.00015818,0.
 00053863,0.00209815,-0.00068525,0.00017908,0.00049330,0.25039746,-0.00
 038880,0.00015928,0.00047527,0.00048449,0.00016801,-0.00015371,-0.0000
 2332,-0.00003403,-0.00003167,0.00007769,0.00008537,0.00018446,0.000413
 59,-0.00084377,-0.00114885,-0.00029087,0.00057952,0.00068335,0.0010192
 3,0.00024554,-0.00028334,-0.00062154,-0.00073180,0.00028949,-0.0003313
 3,0.00010705,0.00009683,0.05189704,-0.12498885,-0.10301137,0.01584406,
 -0.01322006,-0.02752228,0.00291184,-0.00460880,-0.00120363,-0.00079277
 ,0.00083354,-0.00486175,0.00100879,0.00027877,0.00017206,-0.24723792,0
 .54025129,-0.00086606,0.00062726,0.00111539,0.00148097,0.00013386,-0.0
 0008613,-0.00003167,-0.00004251,0.00008599,0.00006668,-0.00012917,0.00
 024529,0.00006823,0.00006571,-0.00201596,-0.00043706,0.00038063,0.0010
 6805,0.00131748,0.00090771,-0.00159352,-0.00025387,-0.00092137,0.00079
 073,0.00004965,-0.00001256,0.00056115,0.09290034,-0.09505841,-0.460777
 72,0.01539007,-0.02120564,-0.00211220,-0.00105607,0.00040312,0.0012943
 0,-0.00567867,0.00574908,-0.00488135,-0.00138475,-0.00050759,0.0006842
 7,-0.08919721,0.01768024,0.79798316,0.00008348,0.00003388,-0.00014289,
 -0.00012448,-0.00008640,0.00006857,-0.00003368,0.00000351,-0.00000814,
 -0.00005010,-0.00005355,-0.00006153,-0.00004432,-0.00000069,0.00036012
 ,0.00006729,-0.00005386,-0.00016871,0.00006271,-0.00011925,0.00020739,
 -0.00006486,0.00001970,-0.00006983,-0.00003835,0.00001834,-0.00012886,
 0.00656462,-0.00741409,0.00500768,-0.00637528,-0.00131659,-0.00142707,
 0.00036583,-0.00027671,-0.00019108,-0.00008888,0.00053827,0.00204327,-
 0.00071539,0.00113135,-0.00003411,-0.05234441,0.04601097,-0.04394649,0
 .04470223,0.00002328,0.00010459,-0.00016218,0.00001066,0.00001461,0.00
 014781,-0.00002045,0.00001673,0.00000219,-0.00010361,-0.00010205,-0.00
 006873,0.00007885,-0.00006632,0.00035468,-0.00001348,-0.00001920,-0.00
 013173,0.00038324,-0.00043471,0.00017235,-0.00034897,0.00010344,-0.000
 08370,-0.00014474,0.00015552,-0.00014501,-0.00127504,0.00755225,-0.008
 17823,-0.00323781,-0.00098792,-0.00057718,0.00009917,0.00012356,0.0000
 2143,0.00053937,0.00007218,0.00009785,0.00071071,-0.00008685,-0.000537
 27,0.04540884,-0.14651999,0.13159076,-0.05114025,0.14598499,0.00004898
 ,-0.00012313,0.00002556,-0.00016437,-0.00005861,0.00005008,0.00002957,
 0.00000529,0.00001129,0.00002604,0.00004661,0.00004638,-0.00011967,0.0
 0021039,-0.00016153,0.00004908,-0.00007225,0.00002463,-0.00018806,0.00
 013725,-0.00024632,0.00012168,-0.00004328,0.00009243,0.00017075,-0.000
 08338,0.00016747,-0.00797812,0.01880872,-0.02084845,-0.00205357,0.0012
 8210,0.00077968,0.00000002,-0.00010309,0.00010516,0.00001517,-0.000257
 17,0.00015985,0.00083169,0.00003230,0.00044584,-0.04396255,0.12667097,
 -0.23305622,0.04886368,-0.14061938,0.24906129,-0.00006406,-0.00000790,
 -0.00003775,0.00001746,0.00003949,0.00005436,0.00001744,-0.00000539,-0
 .00000698,-0.00010544,0.00000254,-0.00008228,-0.00017670,0.00025149,0.
 00016469,0.00012738,-0.00016063,-0.00018461,-0.00108022,0.00102116,0.0
 0049744,0.00096888,-0.00025421,-0.00022898,0.00022940,-0.00044171,-0.0
 0029739,-0.00055131,0.00889740,-0.00001541,0.00893733,0.00319964,0.003
 14393,-0.00082862,0.00092273,0.00027017,0.00006894,-0.00086784,-0.0008
 2881,0.00030053,-0.00018209,-0.00003844,-0.10860209,0.13237258,0.02470
 705,-0.00076080,0.00442721,0.00147989,0.10653602,-0.00001312,-0.000018
 63,-0.00000980,0.00000427,0.00005614,-0.00004122,-0.00002194,-0.000006
 23,-0.00001057,0.00000537,-0.00001469,-0.00000829,-0.00000226,-0.00011
 693,0.00006268,0.00002397,0.00004838,-0.00002289,-0.00004292,-0.000049
 73,0.00010799,0.00002002,0.00005890,-0.00004111,-0.00004025,0.00002091
 ,-0.00004259,0.00495539,-0.00436940,0.00008184,0.00420071,0.00300036,-
 0.00023032,0.00002788,0.00017702,-0.00008906,-0.00011512,-0.00033891,-
 0.00051126,-0.00012671,-0.00003186,-0.00002788,0.13307585,-0.25869080,
 -0.03799903,0.00709182,-0.00950693,-0.00404542,-0.14504451,0.27031884,
 -0.00001818,0.00000334,-0.00004919,-0.00000133,0.00005291,0.00006079,-
 0.00000070,0.00000123,-0.00000940,-0.00004153,0.00001720,-0.00001139,0
 .00009977,-0.00019177,0.00001519,-0.00003173,0.00008383,0.00002597,0.0
 0023210,-0.00026440,0.00007427,-0.00022561,0.00009371,-0.00010988,-0.0
 0012067,0.00013767,-0.00001004,0.01614454,-0.02574666,-0.00202161,0.00
 076519,0.00050362,-0.00466033,0.00074083,-0.00123739,-0.00013570,-0.00
 035995,-0.00004224,-0.00038769,0.00043104,0.00008018,0.00031236,0.0223
 2064,-0.03344884,-0.06442928,-0.01169684,0.01966381,0.00649590,-0.0280
 2397,0.04161107,0.06358064,0.00012886,0.00008288,0.00003080,0.00001217
 ,-0.00011868,-0.00001223,-0.00003337,-0.00004250,-0.00004651,0.0000050
 6,0.00000906,0.00000632,0.00013124,-0.00027817,-0.00012021,-0.00002340
 ,0.00020285,0.00005880,0.00003170,-0.00004374,-0.00014327,-0.00001525,
 0.00001886,0.00004215,-0.00006907,0.00010924,0.00005958,0.00682609,0.0
 0395913,-0.00701635,-0.00608779,0.01823258,0.00756133,-0.00430068,-0.0
 0383574,0.00181014,-0.10331086,0.12116618,0.03187286,0.00457645,-0.004
 50536,-0.00186303,0.00043337,-0.00095668,0.00036893,-0.00000546,-0.000
 16721,-0.00003791,-0.00030176,-0.00009086,-0.00003697,0.10333088,0.000
 04807,0.00000082,0.00007261,0.00001143,-0.00006937,-0.00000251,-0.0000
 2190,-0.00005397,-0.00006287,0.00001612,0.00001968,0.00002018,0.000517
 48,-0.00066681,-0.00040576,-0.00014142,0.00047167,0.00027059,0.0002593
 5,-0.00008910,-0.00019207,-0.00016885,0.00005560,0.00003915,-0.0003111
 1,0.00026117,0.00011127,0.00548904,0.00368738,-0.00053602,0.00630529,-
 0.00839236,-0.00553230,-0.00370990,-0.00155346,0.00147398,0.12306043,-
 0.25064997,-0.07406228,0.00408895,-0.00392715,-0.00080503,0.00002396,-
 0.00061925,0.00061181,-0.00009152,-0.00001890,-0.00006796,-0.00017750,
 -0.00013678,-0.00014788,-0.13511458,0.26178690,0.00003758,-0.00012667,
 0.00003718,-0.00010614,-0.00000372,0.00004020,0.00005574,-0.00002837,-
 0.00000373,0.00001280,0.00004138,0.00001542,-0.00003429,0.00010067,-0.
 00008476,-0.00002347,-0.00005841,-0.00001146,-0.00018064,0.00016349,-0
 .00008238,0.00010519,-0.00005708,0.00002693,0.00007756,-0.00007040,0.0
 0006722,-0.00454432,-0.00124339,-0.00075976,-0.01166943,0.01884663,0.0
 0848860,0.00223710,0.00168167,0.00053860,0.03424497,-0.07733469,-0.080
 71420,0.01273514,-0.02235687,-0.00434144,0.00002145,0.00061669,-0.0006
 5632,-0.00029478,-0.00012267,0.00045603,0.00027152,0.00010524,0.000380
 88,-0.03291556,0.07929012,0.07632431,0.00006004,-0.00008544,0.00004517
 ,-0.00007506,-0.00006848,0.00014086,-0.00000659,0.00000396,0.00002992,
 0.00001143,-0.00001780,0.00000901,-0.00038318,0.00032414,-0.00018162,0
 .00012613,-0.00008370,0.00005485,0.00021768,-0.00118219,-0.00103041,-0
 .00068900,0.00045618,0.00005813,-0.00009717,0.00021881,0.00054677,-0.0
 8659954,0.02264526,-0.02806862,-0.00569978,0.01477944,-0.01439884,0.00
 050434,-0.00070820,-0.00036355,0.00056553,0.00178969,0.00144017,0.0002
 5163,0.00017652,-0.00020656,0.00825671,-0.00208996,0.00668804,0.009340
 79,0.00578520,0.00332487,-0.00574629,-0.00376352,0.00031037,-0.0010112
 3,0.00002780,-0.00007321,0.55403741,-0.00003086,-0.00004830,0.00008422
 ,0.00006357,0.00003371,0.00001355,-0.00000531,-0.00001026,-0.00000995,
 0.00002360,0.00001185,0.00002022,0.00006784,-0.00030893,-0.00038998,0.
 00000810,0.00015823,0.00018291,-0.00012524,0.00036327,0.00006393,0.000
 17404,-0.00013470,-0.00000649,-0.00030282,0.00007351,0.00004194,0.0215
 7787,-0.12356415,0.05344402,0.01205746,-0.01915653,0.02403770,-0.00021
 216,0.00109658,0.00128413,0.00145867,-0.00261482,-0.00237536,-0.000155
 21,-0.00007095,0.00030067,-0.00087304,0.00933644,-0.00244262,0.0068416
 1,0.00311438,-0.00225618,-0.00375689,-0.00157532,-0.00219654,0.0011826
 0,0.00000121,0.00046813,-0.01295217,0.56202227,-0.00023540,0.00005711,
 -0.00019567,0.00013766,0.00021535,-0.00021586,-0.00000815,-0.00000566,
 -0.00005915,-0.00001503,0.00002752,-0.00002706,0.00061483,-0.00103376,
 0.00015676,-0.00018989,0.00031563,0.00007701,-0.00061543,0.00043385,0.
 00118758,0.00026189,-0.00026213,-0.00019162,-0.00095638,-0.00015788,-0
 .00092575,-0.02302133,0.04863597,-0.16154496,-0.00212172,0.00192458,0.
 00665504,0.00061613,-0.00106247,0.00050008,0.00289287,-0.00328717,-0.0
 0024942,0.00006999,0.00011283,0.00015003,-0.00795476,0.01769860,-0.032
 59093,0.00124326,-0.00117149,-0.00212615,-0.00109547,0.00133209,0.0012
 8927,0.00081625,-0.00027964,0.00042753,-0.02724977,0.04197174,0.512658
 57,0.00004342,-0.00001910,0.00001221,0.00000160,-0.00016091,-0.0000658
 8,0.00003334,0.00000213,0.00000162,0.00000313,0.00001236,-0.00000057,-
 0.00013067,0.00040924,0.00021595,0.00008546,-0.00023789,-0.00019381,-0
 .00129726,0.00135408,0.00024616,0.00115634,-0.00050334,0.00028824,0.00
 026590,-0.00065334,-0.00039754,-0.00497017,0.00654078,0.00234859,0.001
 24980,0.00097783,-0.00198483,-0.00008141,-0.00012463,0.00016160,0.0001
 2877,0.00030481,0.00032692,0.00005306,0.00002826,-0.00004796,-0.000132
 99,-0.00076688,0.00089801,-0.00004033,-0.00029457,0.00001308,0.0005229
 5,-0.00016112,-0.00038170,-0.00030092,-0.00009861,0.00000773,-0.117655
 50,0.11154299,0.03656292,0.12185096,0.00000304,0.00001635,-0.00001159,
 0.00002535,0.00000149,-0.00002563,-0.00001684,-0.00000685,-0.00001169,
 -0.00000401,-0.00000719,-0.00000930,0.00006719,-0.00015617,0.00007142,
 -0.00001392,0.00006537,-0.00000022,0.00008233,-0.00013287,0.00008785,-
 0.00013424,-0.00000992,-0.00007939,-0.00008354,0.00006962,-0.00004936,
 0.00812673,-0.01439851,-0.00590485,0.00138872,-0.00070662,0.00346637,-
 0.00023409,0.00030525,0.00011247,0.00019172,-0.00054413,-0.00045018,0.
 00002894,0.00000052,0.00010714,-0.00050030,0.00082936,-0.00166696,-0.0
 0034416,0.00025921,-0.00013921,-0.00021709,0.00074871,0.00072460,0.000
 22258,-0.00009331,0.00017156,0.11127111,-0.23188136,-0.05894064,-0.123
 87979,0.24972456,-0.00001104,0.00000443,0.00001747,-0.00000582,-0.0000
 0381,0.00003808,0.00000197,0.00000061,0.00000821,-0.00000476,-0.000002
 62,0.00000388,-0.00009743,0.00007387,-0.00013395,0.00004118,-0.0000105
 5,0.00004640,0.00001784,-0.00013543,-0.00015673,-0.00003487,0.00003725
 ,-0.00007039,0.00009338,0.00007642,0.00016789,-0.01405652,0.02362777,0
 .00781198,-0.00110910,0.00200128,-0.00489682,0.00003738,0.00027911,0.0
 0014488,-0.00058418,0.00115153,0.00084096,0.00014575,0.00000869,-0.000
 02048,-0.00071470,0.00103959,0.00111764,0.00007886,-0.00022024,0.00040
 059,0.00030603,-0.00035241,-0.00050493,-0.00049035,0.00004714,-0.00012
 009,0.03830711,-0.06261491,-0.07022365,-0.03990210,0.06424160,0.075551
 69,-0.00008026,-0.00004938,0.00000160,-0.00002265,0.00010555,0.0001229
 9,0.00000605,0.00000918,0.00002843,0.00000133,-0.00000696,0.00001666,-
 0.00063769,0.00046256,-0.00018229,0.00014805,-0.00011759,-0.00006711,0
 .00048230,-0.00078512,-0.00060667,-0.00035516,0.00021702,-0.00004133,-
 0.00049835,-0.00011513,0.00011729,0.01159331,0.00299537,-0.00524250,0.
 00026146,0.00049973,0.00005234,-0.00005792,-0.00019469,0.00006825,0.00
 025723,-0.00042563,0.00015777,0.00004508,-0.00000806,-0.00005142,-0.00
 041130,0.00039471,-0.00116431,-0.00073162,-0.00058927,-0.00040754,0.00
 034889,0.00002712,-0.00010360,0.00002251,-0.00001218,0.00001153,-0.220
 74587,-0.05600879,0.11108862,-0.01213680,-0.00479522,0.00668477,0.2384
 9600,0.00010158,-0.00002448,-0.00004140,-0.00005339,-0.00010638,0.0000
 0212,0.00000919,0.00000327,0.00001145,-0.00001046,-0.00000167,-0.00001
 883,-0.00010414,0.00054612,0.00054237,0.00009928,-0.00028582,-0.000314
 58,-0.00089769,0.00053578,-0.00010837,0.00046793,-0.00012900,0.0002859
 7,0.00006359,-0.00072609,-0.00044521,-0.01425321,-0.00432466,0.0090140
 7,0.00001499,0.00093379,0.00046169,-0.00004105,-0.00049766,-0.00026325
 ,0.00016136,0.00004887,-0.00024166,-0.00015288,0.00001517,-0.00005585,
 0.00115404,-0.00139257,0.00079996,0.00050486,0.00069809,0.00040161,-0.
 00023335,0.00010279,0.00006429,-0.00003340,-0.00002523,0.00000130,-0.0
 5686928,-0.07030742,0.03822486,0.02255713,0.00947673,-0.01438654,0.063
 06459,0.07100097,-0.00001173,-0.00000655,0.00031148,0.00010883,-0.0001
 9340,0.00009821,0.00000799,-0.00001302,0.00005571,0.00004898,-0.000003
 10,0.00005627,-0.00131205,0.00145209,-0.00038210,0.00036423,-0.0004271
 3,-0.00018154,-0.00037414,-0.00048530,-0.00185498,0.00021792,0.0001936
 5,0.00052523,0.00128016,-0.00011928,0.00094868,0.02110821,0.00799476,-
 0.01757675,0.00065916,-0.00201429,0.00049852,-0.00008216,0.00021786,0.
 00022981,-0.00092404,0.00033756,-0.00028018,0.00005418,-0.00002947,0.0
 0002506,-0.00164877,0.00293286,-0.00171596,-0.00184018,-0.00111120,-0.
 00122473,0.00109648,0.00071150,0.00017058,0.00011637,0.00013036,-0.000
 06964,0.11194083,0.03727426,-0.11640856,0.00657213,0.00240665,-0.00469
 115,-0.12028773,-0.04365053,0.12967945,-0.00003698,0.00000781,-0.00007
 018,-0.00001639,0.00007719,-0.00004549,0.00000394,0.00000342,-0.000018
 75,0.00000354,0.00001529,-0.00000239,0.00046320,-0.00053764,-0.0000379
 5,-0.00014190,0.00019374,0.00014736,0.00009496,0.00024688,0.00052625,-
 0.00000817,-0.00009979,-0.00010755,-0.00055830,-0.00000185,-0.00033230
 ,-0.00360466,-0.00377005,-0.00446994,0.00078213,-0.00060511,-0.0008898
 5,-0.00039187,0.00064504,0.00036690,0.00005758,0.00018051,0.00039754,0
 .00010374,-0.00004377,0.00013643,-0.00055321,0.00106510,0.00008070,0.0
 0023101,-0.00013112,-0.00006272,0.00014207,-0.00001008,-0.00000170,-0.
 00003854,-0.00000037,0.00002350,-0.13466248,-0.08057587,-0.09084108,0.
 01135131,0.00881548,0.01129659,-0.01598461,-0.01554970,-0.01709467,0.1
 4276361,-0.00000315,0.00005967,-0.00006346,0.00000979,0.00007336,-0.00
 000182,-0.00001263,0.00000227,-0.00000764,-0.00001539,-0.00000702,-0.0
 0001874,0.00031352,-0.00036474,0.00007823,-0.00013096,0.00013322,0.000
 06723,0.00045310,-0.00041925,0.00028865,-0.00045373,0.00007317,-0.0002
 5893,-0.00038014,0.00023348,-0.00011819,0.01220682,0.01196475,0.011805
 46,0.00001393,0.00046813,0.00020550,-0.00004871,-0.00020543,-0.0002103
 7,-0.00029000,0.00036423,-0.00003377,-0.00006434,-0.00006442,-0.000042
 04,0.00056308,-0.00122424,0.00103573,-0.00129725,-0.00045668,0.0002738
 1,0.00021487,0.00032412,0.00023826,0.00000097,0.00001122,-0.00008458,-
 0.07965738,-0.12653874,-0.08474929,-0.01682944,-0.01356023,-0.01486278
 ,-0.00466782,-0.00554062,-0.00559829,0.09007488,0.13467373,-0.00000581
 ,-0.00006695,0.00010322,-0.00001500,-0.00002114,0.00003327,0.00001019,
 0.00000042,0.00001301,0.00003445,0.00001375,0.00003224,-0.00009843,0.0
 0018599,-0.00022928,0.00000477,-0.00001698,0.00007783,0.00019772,0.000
 00027,-0.00044588,-0.00005451,0.00000342,0.00015750,0.00022144,0.00005
 327,0.00029181,-0.01563366,-0.01408037,-0.02134201,0.00171585,-0.00127
 374,0.00017940,-0.00041777,0.00042522,0.00065524,-0.00009900,0.0004641
 7,0.00005993,0.00013260,-0.00011461,0.00013055,-0.00171715,0.00312504,
 -0.00103038,0.00213768,0.00107814,-0.00065877,-0.00115149,-0.00058055,
 -0.00007643,-0.00006114,0.00002710,0.00004089,-0.09132353,-0.08689538,
 -0.13834309,-0.00468077,-0.00410064,-0.00533148,0.00980423,0.00971652,
 0.01178657,0.10099930,0.09205705,0.15389587\\0.00000373,-0.00000868,-0
 .00001272,-0.00000594,0.00000999,-0.00000181,0.00000353,0.00000641,0.0
 0000611,-0.00000114,-0.00000260,0.00000215,0.00001305,-0.00000986,0.00
 000671,-0.00000474,0.00000380,0.00000020,0.00000619,-0.00000736,-0.000
 00744,-0.00000221,0.00000258,0.00000002,-0.00001186,0.00001025,0.00000
 272,-0.00000677,0.00000176,0.00000957,0.00000397,-0.00000385,-0.000002
 66,-0.00000052,0.00000337,0.00000068,-0.00000465,0.00000063,-0.0000035
 1,0.00000175,-0.00000277,0.00000393,0.00000627,-0.00000202,-0.00000923
 ,-0.00000448,-0.00000278,0.00000189,0.00000135,0.00000104,0.00000216,0
 .00000057,0.00000014,0.00000190,0.00000364,0.00000209,-0.00000003,-0.0
 0000048,-0.00000020,-0.00000106,-0.00000032,-0.00000019,-0.00000104,-0
 .00000094,-0.00000174,0.00000147\\\@
 The archive entry for this job was punched.


 GARBAGE IN, GARBAGE OUT
 Job cpu time:       0 days  0 hours 16 minutes 10.1 seconds.
 Elapsed time:       0 days  0 hours  0 minutes 32.1 seconds.
 File lengths (MBytes):  RWF=    110 Int=      0 D2E=      0 Chk=      5 Scr=      1
 Normal termination of Gaussian 16 at Mon Mar 13 09:38:20 2023.
