Job Start Time: Tue Mar 14 12:46:22 MDT 2023
SLURM Job ID: 16768
SLURM Job Name: diene_rot
 Entering Gaussian System, Link 0=/opt/apps/Gaussian/G16C/g16/g16
 Initial command:
 /opt/apps/Gaussian/G16C/g16/l1.exe "/tmp/Gau-362702.inp" -scrdir="/tmp/"
 Entering Link 1 = /opt/apps/Gaussian/G16C/g16/l1.exe PID=    362703.
  
 Copyright (c) 1988-2019, Gaussian, Inc.  All Rights Reserved.
  
 This is part of the Gaussian(R) 16 program.  It is based on
 the Gaussian(R) 09 system (copyright 2009, Gaussian, Inc.),
 the Gaussian(R) 03 system (copyright 2003, Gaussian, Inc.),
 the Gaussian(R) 98 system (copyright 1998, Gaussian, Inc.),
 the Gaussian(R) 94 system (copyright 1995, Gaussian, Inc.),
 the Gaussian 92(TM) system (copyright 1992, Gaussian, Inc.),
 the Gaussian 90(TM) system (copyright 1990, Gaussian, Inc.),
 the Gaussian 88(TM) system (copyright 1988, Gaussian, Inc.),
 the Gaussian 86(TM) system (copyright 1986, Carnegie Mellon
 University), and the Gaussian 82(TM) system (copyright 1983,
 Carnegie Mellon University). Gaussian is a federally registered
 trademark of Gaussian, Inc.
  
 This software contains proprietary and confidential information,
 including trade secrets, belonging to Gaussian, Inc.
  
 This software is provided under written license and may be
 used, copied, transmitted, or stored only in accord with that
 written license.
  
 The following legend is applicable only to US Government
 contracts under FAR:
  
                    RESTRICTED RIGHTS LEGEND
  
 Use, reproduction and disclosure by the US Government is
 subject to restrictions as set forth in subparagraphs (a)
 and (c) of the Commercial Computer Software - Restricted
 Rights clause in FAR 52.227-19.
  
 Gaussian, Inc.
 340 Quinnipiac St., Bldg. 40, Wallingford CT 06492
  
  
 ---------------------------------------------------------------
 Warning -- This program may not be used in any manner that
 competes with the business of Gaussian, Inc. or will provide
 assistance to any competitor of Gaussian, Inc.  The licensee
 of this program is prohibited from giving any competitor of
 Gaussian, Inc. access to this program.  By using this program,
 the user acknowledges that Gaussian, Inc. is engaged in the
 business of creating and licensing software in the field of
 computational chemistry and represents and warrants to the
 licensee that it is not a competitor of Gaussian, Inc. and that
 it will not use this program in any manner prohibited above.
 ---------------------------------------------------------------
  

 Cite this work as:
 Gaussian 16, Revision C.01,
 M. J. Frisch, G. W. Trucks, H. B. Schlegel, G. E. Scuseria, 
 M. A. Robb, J. R. Cheeseman, G. Scalmani, V. Barone, 
 G. A. Petersson, H. Nakatsuji, X. Li, M. Caricato, A. V. Marenich, 
 J. Bloino, B. G. Janesko, R. Gomperts, B. Mennucci, H. P. Hratchian, 
 J. V. Ortiz, A. F. Izmaylov, J. L. Sonnenberg, D. Williams-Young, 
 F. Ding, F. Lipparini, F. Egidi, J. Goings, B. Peng, A. Petrone, 
 T. Henderson, D. Ranasinghe, V. G. Zakrzewski, J. Gao, N. Rega, 
 G. Zheng, W. Liang, M. Hada, M. Ehara, K. Toyota, R. Fukuda, 
 J. Hasegawa, M. Ishida, T. Nakajima, Y. Honda, O. Kitao, H. Nakai, 
 T. Vreven, K. Throssell, J. A. Montgomery, Jr., J. E. Peralta, 
 F. Ogliaro, M. J. Bearpark, J. J. Heyd, E. N. Brothers, K. N. Kudin, 
 V. N. Staroverov, T. A. Keith, R. Kobayashi, J. Normand, 
 K. Raghavachari, A. P. Rendell, J. C. Burant, S. S. Iyengar, 
 J. Tomasi, M. Cossi, J. M. Millam, M. Klene, C. Adamo, R. Cammi, 
 J. W. Ochterski, R. L. Martin, K. Morokuma, O. Farkas, 
 J. B. Foresman, and D. J. Fox, Gaussian, Inc., Wallingford CT, 2019.
 
 ******************************************
 Gaussian 16:  AS64L-G16RevC.01  3-Jul-2019
                14-Mar-2023 
 ******************************************
 %chk=DATS_diene.chk
 %mem=64GB
 %nprocshared=32
 Will use up to   32 processors via shared memory.
 -------------------------
 # opt freq b3lyp/6-31g(d)
 -------------------------
 1/18=20,19=15,26=3,38=1/1,3;
 2/9=110,12=2,17=6,18=5,40=1/2;
 3/5=1,6=6,7=1,11=2,25=1,30=1,71=1,74=-5/1,2,3;
 4//1;
 5/5=2,38=5/2;
 6/7=2,8=2,9=2,10=2,28=1/1;
 7//1,2,3,16;
 1/18=20,19=15,26=3/3(2);
 2/9=110/2;
 99//99;
 2/9=110/2;
 3/5=1,6=6,7=1,11=2,25=1,30=1,71=1,74=-5/1,2,3;
 4/5=5,16=3,69=1/1;
 5/5=2,38=5/2;
 7//1,2,3,16;
 1/18=20,19=15,26=3/3(-5);
 2/9=110/2;
 6/7=2,8=2,9=2,10=2,19=2,28=1/1;
 99/9=1/99;
 -------------------
 Title Card Required
 -------------------
 Symbolic Z-matrix:
 Charge =  0 Multiplicity = 1
 C                     0.45401   0.10926  -0.05812 
 C                    -0.85162  -0.5607   -0.23826 
 H                    -1.33528  -0.39668  -1.20308 
 C                    -1.45324  -1.36093   0.64939 
 H                    -0.99396  -1.60494   1.60403 
 C                     0.586     1.44371  -0.08904 
 H                    -0.26013   2.09691  -0.28206 
 H                     1.54919   1.92284   0.06571 
 H                    -2.42317  -1.80557   0.44505 
 C                     1.64087  -0.80613   0.13994 
 H                     2.57327  -0.24255   0.23909 
 H                     1.5179   -1.42766   1.03662 
 H                     1.74913  -1.49621  -0.70804 
 

 GradGradGradGradGradGradGradGradGradGradGradGradGradGradGradGradGradGrad
 Berny optimization.
 Initialization pass.
                           ----------------------------
                           !    Initial Parameters    !
                           ! (Angstroms and Degrees)  !
 --------------------------                            --------------------------
 ! Name  Definition              Value          Derivative Info.                !
 --------------------------------------------------------------------------------
 ! R1    R(1,2)                  1.4785         estimate D2E/DX2                !
 ! R2    R(1,6)                  1.3413         estimate D2E/DX2                !
 ! R3    R(1,10)                 1.5119         estimate D2E/DX2                !
 ! R4    R(2,3)                  1.0917         estimate D2E/DX2                !
 ! R5    R(2,4)                  1.338          estimate D2E/DX2                !
 ! R6    R(4,5)                  1.0871         estimate D2E/DX2                !
 ! R7    R(4,9)                  1.0864         estimate D2E/DX2                !
 ! R8    R(6,7)                  1.0862         estimate D2E/DX2                !
 ! R9    R(6,8)                  1.0869         estimate D2E/DX2                !
 ! R10   R(10,11)                1.094          estimate D2E/DX2                !
 ! R11   R(10,12)                1.0979         estimate D2E/DX2                !
 ! R12   R(10,13)                1.0986         estimate D2E/DX2                !
 ! A1    A(2,1,6)              122.337          estimate D2E/DX2                !
 ! A2    A(2,1,10)             115.7755         estimate D2E/DX2                !
 ! A3    A(6,1,10)             121.8792         estimate D2E/DX2                !
 ! A4    A(1,2,3)              115.5217         estimate D2E/DX2                !
 ! A5    A(1,2,4)              125.9615         estimate D2E/DX2                !
 ! A6    A(3,2,4)              118.4889         estimate D2E/DX2                !
 ! A7    A(2,4,5)              121.7938         estimate D2E/DX2                !
 ! A8    A(2,4,9)              121.429          estimate D2E/DX2                !
 ! A9    A(5,4,9)              116.7751         estimate D2E/DX2                !
 ! A10   A(1,6,7)              121.7165         estimate D2E/DX2                !
 ! A11   A(1,6,8)              121.5007         estimate D2E/DX2                !
 ! A12   A(7,6,8)              116.7784         estimate D2E/DX2                !
 ! A13   A(1,10,11)            111.6561         estimate D2E/DX2                !
 ! A14   A(1,10,12)            111.212          estimate D2E/DX2                !
 ! A15   A(1,10,13)            110.8883         estimate D2E/DX2                !
 ! A16   A(11,10,12)           108.2438         estimate D2E/DX2                !
 ! A17   A(11,10,13)           108.0322         estimate D2E/DX2                !
 ! A18   A(12,10,13)           106.6078         estimate D2E/DX2                !
 ! D1    D(6,1,2,3)             62.1054         estimate D2E/DX2                !
 ! D2    D(6,1,2,4)           -119.8547         estimate D2E/DX2                !
 ! D3    D(10,1,2,3)          -116.8638         estimate D2E/DX2                !
 ! D4    D(10,1,2,4)            61.176          estimate D2E/DX2                !
 ! D5    D(2,1,6,7)             -2.088          estimate D2E/DX2                !
 ! D6    D(2,1,6,8)            178.7021         estimate D2E/DX2                !
 ! D7    D(10,1,6,7)           176.819          estimate D2E/DX2                !
 ! D8    D(10,1,6,8)            -2.3909         estimate D2E/DX2                !
 ! D9    D(2,1,10,11)          178.4631         estimate D2E/DX2                !
 ! D10   D(2,1,10,12)          -60.5112         estimate D2E/DX2                !
 ! D11   D(2,1,10,13)           57.9311         estimate D2E/DX2                !
 ! D12   D(6,1,10,11)           -0.5113         estimate D2E/DX2                !
 ! D13   D(6,1,10,12)          120.5144         estimate D2E/DX2                !
 ! D14   D(6,1,10,13)         -121.0433         estimate D2E/DX2                !
 ! D15   D(1,2,4,5)             -1.3915         estimate D2E/DX2                !
 ! D16   D(1,2,4,9)            179.1516         estimate D2E/DX2                !
 ! D17   D(3,2,4,5)            176.5959         estimate D2E/DX2                !
 ! D18   D(3,2,4,9)             -2.861          estimate D2E/DX2                !
 --------------------------------------------------------------------------------
 Trust Radius=3.00D-01 FncErr=1.00D-07 GrdErr=1.00D-06 EigMax=2.50D+02 EigMin=1.00D-04
 Number of steps in this run=     58 maximum allowed number of steps=    100.
 GradGradGradGradGradGradGradGradGradGradGradGradGradGradGradGradGradGrad

                          Input orientation:                          
 ---------------------------------------------------------------------
 Center     Atomic      Atomic             Coordinates (Angstroms)
 Number     Number       Type             X           Y           Z
 ---------------------------------------------------------------------
      1          6           0        0.454008    0.109255   -0.058120
      2          6           0       -0.851623   -0.560698   -0.238262
      3          1           0       -1.335283   -0.396675   -1.203078
      4          6           0       -1.453237   -1.360926    0.649391
      5          1           0       -0.993964   -1.604938    1.604035
      6          6           0        0.585996    1.443712   -0.089037
      7          1           0       -0.260132    2.096905   -0.282058
      8          1           0        1.549187    1.922844    0.065709
      9          1           0       -2.423171   -1.805574    0.445048
     10          6           0        1.640866   -0.806125    0.139943
     11          1           0        2.573269   -0.242547    0.239093
     12          1           0        1.517903   -1.427663    1.036625
     13          1           0        1.749127   -1.496212   -0.708037
 ---------------------------------------------------------------------
                    Distance matrix (angstroms):
                    1          2          3          4          5
     1  C    0.000000
     2  C    1.478499   0.000000
     3  H    2.183680   1.091651   0.000000
     4  C    2.509898   1.337996   2.091731   0.000000
     5  H    2.792461   2.122441   3.075107   1.087114   0.000000
     6  C    1.341325   2.471169   2.884342   3.545383   3.828450
     7  H    2.123887   2.722982   2.867433   3.774612   4.218945
     8  H    2.122229   3.467603   3.912820   4.487581   4.612950
     9  H    3.492550   2.118110   2.425864   1.086389   1.850983
    10  C    1.511880   2.532938   3.290717   3.184465   3.118333
    11  H    2.168725   3.472603   4.168980   4.199032   4.055161
    12  H    2.166208   2.826945   3.770925   2.997011   2.581251
    13  H    2.162695   2.803529   3.311741   3.480811   3.589157
                    6          7          8          9         10
     6  C    0.000000
     7  H    1.086209   0.000000
     8  H    1.086854   1.850642   0.000000
     9  H    4.460739   4.520704   5.461193   0.000000
    10  C    2.495386   3.495635   2.731517   4.196235   0.000000
    11  H    2.626860   3.711172   2.401609   5.239264   1.093996
    12  H    3.221857   4.162080   3.488489   4.003105   1.097938
    13  H    3.221675   4.138728   3.511211   4.339744   1.098640
                   11         12         13
    11  H    0.000000
    12  H    1.776050   0.000000
    13  H    1.774244   1.761252   0.000000
 Stoichiometry    C5H8
 Framework group  C1[X(C5H8)]
 Deg. of freedom    33
 Full point group                 C1      NOp   1
 Largest Abelian subgroup         C1      NOp   1
 Largest concise Abelian subgroup C1      NOp   1
                         Standard orientation:                         
 ---------------------------------------------------------------------
 Center     Atomic      Atomic             Coordinates (Angstroms)
 Number     Number       Type             X           Y           Z
 ---------------------------------------------------------------------
      1          6           0        0.501567   -0.128954    0.066009
      2          6           0       -0.916114   -0.392832    0.392363
      3          1           0       -1.089287   -0.979576    1.296489
      4          6           0       -1.975958    0.050516   -0.293499
      5          1           0       -1.866733    0.684521   -1.169812
      6          6           0        1.371439   -1.114106   -0.202229
      7          1           0        1.080841   -2.159846   -0.159423
      8          1           0        2.405842   -0.903521   -0.460910
      9          1           0       -2.989736   -0.200288    0.005823
     10          6           0        0.919194    1.324062    0.076623
     11          1           0        1.983881    1.439759   -0.146719
     12          1           0        0.348507    1.906807   -0.658355
     13          1           0        0.725917    1.780036    1.057308
 ---------------------------------------------------------------------
 Rotational constants (GHZ):           8.1103051           3.9990158           2.9392426
 Standard basis: 6-31G(d) (6D, 7F)
 There are    91 symmetry adapted cartesian basis functions of A   symmetry.
 There are    91 symmetry adapted basis functions of A   symmetry.
    91 basis functions,   172 primitive gaussians,    91 cartesian basis functions
    19 alpha electrons       19 beta electrons
       nuclear repulsion energy       159.3962514151 Hartrees.
 NAtoms=   13 NActive=   13 NUniq=   13 SFac= 1.00D+00 NAtFMM=   60 NAOKFM=F Big=F
 Integral buffers will be    131072 words long.
 Raffenetti 2 integral format.
 Two-electron integral symmetry is turned on.
 One-electron integrals computed using PRISM.
 NBasis=    91 RedAO= T EigKep=  3.58D-03  NBF=    91
 NBsUse=    91 1.00D-06 EigRej= -1.00D+00 NBFU=    91
 ExpMin= 1.61D-01 ExpMax= 3.05D+03 ExpMxC= 4.57D+02 IAcc=3 IRadAn=         5 AccDes= 0.00D+00
 Harris functional with IExCor=  402 and IRadAn=       5 diagonalized for initial guess.
 HarFok:  IExCor=  402 AccDes= 0.00D+00 IRadAn=         5 IDoV= 1 UseB2=F ITyADJ=14
 ICtDFT=  3500011 ScaDFX=  1.000000  1.000000  1.000000  1.000000
 FoFCou: FMM=F IPFlag=           0 FMFlag=      100000 FMFlg1=           0
         NFxFlg=           0 DoJE=T BraDBF=F KetDBF=T FulRan=T
         wScrn=  0.000000 ICntrl=       500 IOpCl=  0 I1Cent=   200000004 NGrid=           0
         NMat0=    1 NMatS0=      1 NMatT0=    0 NMatD0=    1 NMtDS0=    0 NMtDT0=    0
 Petite list used in FoFCou.
 Requested convergence on RMS density matrix=1.00D-08 within 128 cycles.
 Requested convergence on MAX density matrix=1.00D-06.
 Requested convergence on             energy=1.00D-06.
 No special actions if energy rises.
 Integral accuracy reduced to 1.0D-05 until final iterations.
 Initial convergence to 1.0D-05 achieved.  Increase integral accuracy.
 SCF Done:  E(RB3LYP) =  -195.300273436     A.U. after   13 cycles
            NFock= 13  Conv=0.57D-08     -V/T= 2.0102

 **********************************************************************

            Population analysis using the SCF Density.

 **********************************************************************

 Orbital symmetries:
       Occupied  (A) (A) (A) (A) (A) (A) (A) (A) (A) (A) (A) (A)
                 (A) (A) (A) (A) (A) (A) (A)
       Virtual   (A) (A) (A) (A) (A) (A) (A) (A) (A) (A) (A) (A)
                 (A) (A) (A) (A) (A) (A) (A) (A) (A) (A) (A) (A)
                 (A) (A) (A) (A) (A) (A) (A) (A) (A) (A) (A) (A)
                 (A) (A) (A) (A) (A) (A) (A) (A) (A) (A) (A) (A)
                 (A) (A) (A) (A) (A) (A) (A) (A) (A) (A) (A) (A)
                 (A) (A) (A) (A) (A) (A) (A) (A) (A) (A) (A) (A)
 The electronic state is 1-A.
 Alpha  occ. eigenvalues --  -10.19567 -10.18999 -10.18192 -10.18047 -10.17279
 Alpha  occ. eigenvalues --   -0.81225  -0.73625  -0.68199  -0.59832  -0.51740
 Alpha  occ. eigenvalues --   -0.46760  -0.44581  -0.42046  -0.40178  -0.39029
 Alpha  occ. eigenvalues --   -0.36456  -0.33461  -0.27194  -0.23452
 Alpha virt. eigenvalues --   -0.00143   0.04143   0.10887   0.13280   0.13933
 Alpha virt. eigenvalues --    0.15188   0.17282   0.18947   0.19482   0.21739
 Alpha virt. eigenvalues --    0.25711   0.33139   0.35464   0.38378   0.50018
 Alpha virt. eigenvalues --    0.51782   0.53190   0.55326   0.56585   0.60730
 Alpha virt. eigenvalues --    0.64841   0.65772   0.67040   0.68940   0.69550
 Alpha virt. eigenvalues --    0.73205   0.78942   0.84280   0.85265   0.87195
 Alpha virt. eigenvalues --    0.88012   0.89362   0.92679   0.94254   0.94879
 Alpha virt. eigenvalues --    0.98100   1.01067   1.11667   1.16626   1.17515
 Alpha virt. eigenvalues --    1.26336   1.39138   1.42553   1.51767   1.63687
 Alpha virt. eigenvalues --    1.68298   1.73216   1.77311   1.85365   1.89621
 Alpha virt. eigenvalues --    1.94173   1.98642   2.00096   2.11569   2.13984
 Alpha virt. eigenvalues --    2.16513   2.22990   2.30716   2.33935   2.37900
 Alpha virt. eigenvalues --    2.40267   2.45568   2.55812   2.72498   2.74535
 Alpha virt. eigenvalues --    2.94068   2.98025   4.10302   4.13904   4.21217
 Alpha virt. eigenvalues --    4.32172   4.50554
          Condensed to atoms (all electrons):
               1          2          3          4          5          6
     1  C    4.583276   0.405863  -0.044305  -0.038291  -0.008326   0.672522
     2  C    0.405863   4.893112   0.365007   0.646305  -0.038617  -0.043599
     3  H   -0.044305   0.365007   0.591147  -0.051626   0.005858  -0.005400
     4  C   -0.038291   0.646305  -0.051626   5.032055   0.370969  -0.000099
     5  H   -0.008326  -0.038617   0.005858   0.370969   0.567246   0.000440
     6  C    0.672522  -0.043599  -0.005400  -0.000099   0.000440   5.097393
     7  H   -0.030751  -0.009010   0.002274   0.000448   0.000037   0.362023
     8  H   -0.021220   0.005603  -0.000167  -0.000104  -0.000016   0.356134
     9  H    0.003902  -0.020961  -0.007933   0.364120  -0.041866  -0.000121
    10  C    0.392631  -0.073892   0.004593  -0.005977   0.001574  -0.050354
    11  H   -0.028549   0.005651  -0.000174   0.000122  -0.000103  -0.006257
    12  H   -0.030067  -0.002808  -0.000099   0.003456   0.001794   0.000745
    13  H   -0.032315  -0.000675   0.000531   0.000059   0.000134  -0.000193
               7          8          9         10         11         12
     1  C   -0.030751  -0.021220   0.003902   0.392631  -0.028549  -0.030067
     2  C   -0.009010   0.005603  -0.020961  -0.073892   0.005651  -0.002808
     3  H    0.002274  -0.000167  -0.007933   0.004593  -0.000174  -0.000099
     4  C    0.000448  -0.000104   0.364120  -0.005977   0.000122   0.003456
     5  H    0.000037  -0.000016  -0.041866   0.001574  -0.000103   0.001794
     6  C    0.362023   0.356134  -0.000121  -0.050354  -0.006257   0.000745
     7  H    0.574679  -0.043444  -0.000024   0.006624  -0.000040  -0.000200
     8  H   -0.043444   0.573991   0.000004  -0.012231   0.005956   0.000210
     9  H   -0.000024   0.000004   0.559794  -0.000001   0.000003  -0.000091
    10  C    0.006624  -0.012231  -0.000001   5.147677   0.360421   0.361364
    11  H   -0.000040   0.005956   0.000003   0.360421   0.570999  -0.028464
    12  H   -0.000200   0.000210  -0.000091   0.361364  -0.028464   0.573718
    13  H   -0.000182   0.000151  -0.000009   0.367270  -0.028893  -0.035398
              13
     1  C   -0.032315
     2  C   -0.000675
     3  H    0.000531
     4  C    0.000059
     5  H    0.000134
     6  C   -0.000193
     7  H   -0.000182
     8  H    0.000151
     9  H   -0.000009
    10  C    0.367270
    11  H   -0.028893
    12  H   -0.035398
    13  H    0.571025
 Mulliken charges:
               1
     1  C    0.175630
     2  C   -0.131978
     3  H    0.140294
     4  C   -0.321436
     5  H    0.140875
     6  C   -0.383233
     7  H    0.137566
     8  H    0.135134
     9  H    0.143183
    10  C   -0.499698
    11  H    0.149328
    12  H    0.155839
    13  H    0.158496
 Sum of Mulliken charges =  -0.00000
 Mulliken charges with hydrogens summed into heavy atoms:
               1
     1  C    0.175630
     2  C    0.008316
     4  C   -0.037378
     6  C   -0.110533
    10  C   -0.036035
 Electronic spatial extent (au):  <R**2>=            472.6190
 Charge=             -0.0000 electrons
 Dipole moment (field-independent basis, Debye):
    X=             -0.0947    Y=              0.3205    Z=              0.1728  Tot=              0.3762
 Quadrupole moment (field-independent basis, Debye-Ang):
   XX=            -29.9394   YY=            -31.1945   ZZ=            -32.1876
   XY=              0.2905   XZ=             -0.4323   YZ=             -1.1576
 Traceless Quadrupole moment (field-independent basis, Debye-Ang):
   XX=              1.1678   YY=             -0.0874   ZZ=             -1.0805
   XY=              0.2905   XZ=             -0.4323   YZ=             -1.1576
 Octapole moment (field-independent basis, Debye-Ang**2):
  XXX=             -1.7893  YYY=             -1.4128  ZZZ=              1.3930  XYY=              1.4135
  XXY=             -0.1718  XXZ=             -1.5261  XZZ=             -1.7790  YZZ=              1.6724
  YYZ=              0.3300  XYZ=              2.5106
 Hexadecapole moment (field-independent basis, Debye-Ang**3):
 XXXX=           -354.7553 YYYY=           -198.9381 ZZZZ=            -62.7457 XXXY=              3.1466
 XXXZ=             -5.2306 YYYX=             -2.4132 YYYZ=             -1.2518 ZZZX=              0.5504
 ZZZY=             -2.3614 XXYY=           -100.4712 XXZZ=            -76.7589 YYZZ=            -43.5861
 XXYZ=             -2.4680 YYXZ=             -0.5222 ZZXY=              1.1208
 N-N= 1.593962514151D+02 E-N=-7.700233625958D+02  KE= 1.933207141205D+02
 Calling FoFJK, ICntrl=      2127 FMM=F ISym2X=0 I1Cent= 0 IOpClX= 0 NMat=1 NMatS=1 NMatT=0.
 ***** Axes restored to original set *****
 -------------------------------------------------------------------
 Center     Atomic                   Forces (Hartrees/Bohr)
 Number     Number              X              Y              Z
 -------------------------------------------------------------------
      1        6           0.009130225    0.002049520    0.002938342
      2        6          -0.008484203   -0.002499733   -0.003761110
      3        1          -0.002959595    0.002696185    0.001654348
      4        6           0.003961939    0.000276196   -0.002779045
      5        1          -0.001109767    0.001167496    0.001445753
      6        6          -0.001681544   -0.004097368   -0.002955037
      7        1          -0.000824735    0.000579441    0.001774970
      8        1           0.000240793   -0.000139986   -0.001134091
      9        1           0.000539979   -0.000674625   -0.000311154
     10        6           0.001414135    0.000214346    0.002363997
     11        1           0.000390506    0.000471189    0.000543274
     12        1           0.000141482   -0.000379309   -0.000343075
     13        1          -0.000759215    0.000336650    0.000562828
 -------------------------------------------------------------------
 Cartesian Forces:  Max     0.009130225 RMS     0.002678654

 GradGradGradGradGradGradGradGradGradGradGradGradGradGradGradGradGradGrad
 Berny optimization.
 FormGI is forming the generalized inverse of G from B-inverse, IUseBI=4.
 Internal  Forces:  Max     0.007129247 RMS     0.001856637
 Search for a local minimum.
 Step number   1 out of a maximum of   58
 All quantities printed in internal units (Hartrees-Bohrs-Radians)
 Mixed Optimization -- RFO/linear search
 Second derivative matrix not updated -- first step.
 ITU=  0
     Eigenvalues ---    0.00609   0.01050   0.01435   0.02006   0.02865
     Eigenvalues ---    0.02865   0.02909   0.02909   0.07011   0.07178
     Eigenvalues ---    0.15996   0.16000   0.16000   0.16000   0.16000
     Eigenvalues ---    0.16000   0.16000   0.16000   0.22002   0.24996
     Eigenvalues ---    0.24998   0.31162   0.33833   0.33911   0.34355
     Eigenvalues ---    0.34623   0.34742   0.35148   0.35179   0.35233
     Eigenvalues ---    0.35254   0.56909   0.57656
 RFO step:  Lambda=-2.00325245D-03 EMin= 6.08796702D-03
 Linear search not attempted -- first point.
 Iteration  1 RMS(Cart)=  0.06894381 RMS(Int)=  0.00268185
 Iteration  2 RMS(Cart)=  0.00337269 RMS(Int)=  0.00006222
 Iteration  3 RMS(Cart)=  0.00000469 RMS(Int)=  0.00006213
 Iteration  4 RMS(Cart)=  0.00000000 RMS(Int)=  0.00006213
 Variable       Old X    -DE/DX   Delta X   Delta X   Delta X     New X
                                 (Linear)    (Quad)   (Total)
    R1        2.79396   0.00713   0.00000   0.02040   0.02040   2.81436
    R2        2.53474  -0.00381   0.00000  -0.00667  -0.00667   2.52807
    R3        2.85704   0.00095   0.00000   0.00303   0.00303   2.86007
    R4        2.06292   0.00025   0.00000   0.00073   0.00073   2.06365
    R5        2.52845  -0.00308   0.00000  -0.00531  -0.00531   2.52313
    R6        2.05435   0.00054   0.00000   0.00153   0.00153   2.05587
    R7        2.05298  -0.00015   0.00000  -0.00042  -0.00042   2.05256
    R8        2.05264   0.00068   0.00000   0.00191   0.00191   2.05454
    R9        2.05386  -0.00001   0.00000  -0.00003  -0.00003   2.05383
   R10        2.06735   0.00062   0.00000   0.00181   0.00181   2.06916
   R11        2.07480  -0.00008   0.00000  -0.00024  -0.00024   2.07456
   R12        2.07613  -0.00072   0.00000  -0.00212  -0.00212   2.07401
    A1        2.13518  -0.00478   0.00000  -0.01894  -0.01894   2.11624
    A2        2.02066   0.00421   0.00000   0.01674   0.01674   2.03740
    A3        2.12719   0.00056   0.00000   0.00225   0.00225   2.12945
    A4        2.01623   0.00265   0.00000   0.01419   0.01402   2.03025
    A5        2.19844  -0.00292   0.00000  -0.01294  -0.01311   2.18534
    A6        2.06802   0.00029   0.00000  -0.00026  -0.00043   2.06760
    A7        2.12570   0.00074   0.00000   0.00465   0.00452   2.13023
    A8        2.11934  -0.00033   0.00000  -0.00197  -0.00210   2.11723
    A9        2.03811  -0.00041   0.00000  -0.00244  -0.00258   2.03553
   A10        2.12435   0.00023   0.00000   0.00148   0.00142   2.12577
   A11        2.12059  -0.00021   0.00000  -0.00125  -0.00131   2.11928
   A12        2.03817  -0.00001   0.00000   0.00000  -0.00006   2.03811
   A13        1.94877  -0.00003   0.00000   0.00094   0.00094   1.94971
   A14        1.94102   0.00053   0.00000   0.00261   0.00261   1.94362
   A15        1.93537  -0.00080   0.00000  -0.00536  -0.00536   1.93001
   A16        1.88921  -0.00014   0.00000  -0.00008  -0.00008   1.88913
   A17        1.88552   0.00067   0.00000   0.00542   0.00542   1.89094
   A18        1.86066  -0.00023   0.00000  -0.00354  -0.00354   1.85712
    D1        1.08394  -0.00210   0.00000  -0.15649  -0.15655   0.92739
    D2       -2.09186  -0.00135   0.00000  -0.12140  -0.12135  -2.21321
    D3       -2.03966  -0.00217   0.00000  -0.15995  -0.16001  -2.19966
    D4        1.06772  -0.00142   0.00000  -0.12487  -0.12480   0.94292
    D5       -0.03644   0.00162   0.00000   0.05289   0.05291   0.01647
    D6        3.11894   0.00096   0.00000   0.03133   0.03135  -3.13289
    D7        3.08607   0.00173   0.00000   0.05669   0.05667  -3.14044
    D8       -0.04173   0.00107   0.00000   0.03514   0.03512  -0.00661
    D9        3.11477   0.00017   0.00000   0.01840   0.01841   3.13318
   D10       -1.05612   0.00035   0.00000   0.02076   0.02078  -1.03534
   D11        1.01109  -0.00011   0.00000   0.01455   0.01457   1.02565
   D12       -0.00892   0.00016   0.00000   0.01519   0.01517   0.00625
   D13        2.10337   0.00034   0.00000   0.01756   0.01754   2.12091
   D14       -2.11260  -0.00012   0.00000   0.01134   0.01132  -2.10128
   D15       -0.02429   0.00136   0.00000   0.03862   0.03868   0.01439
   D16        3.12679   0.00039   0.00000   0.00734   0.00740   3.13419
   D17        3.08218   0.00217   0.00000   0.07488   0.07482  -3.12619
   D18       -0.04993   0.00120   0.00000   0.04360   0.04354  -0.00639
         Item               Value     Threshold  Converged?
 Maximum Force            0.007129     0.000450     NO 
 RMS     Force            0.001857     0.000300     NO 
 Maximum Displacement     0.235430     0.001800     NO 
 RMS     Displacement     0.068932     0.001200     NO 
 Predicted change in Energy=-1.102656D-03
 GradGradGradGradGradGradGradGradGradGradGradGradGradGradGradGradGradGrad

                          Input orientation:                          
 ---------------------------------------------------------------------
 Center     Atomic      Atomic             Coordinates (Angstroms)
 Number     Number       Type             X           Y           Z
 ---------------------------------------------------------------------
      1          6           0        0.457031    0.112713   -0.061662
      2          6           0       -0.872742   -0.535187   -0.234668
      3          1           0       -1.425657   -0.272091   -1.138886
      4          6           0       -1.426282   -1.397312    0.621515
      5          1           0       -0.933564   -1.689235    1.546492
      6          6           0        0.595948    1.441470   -0.130978
      7          1           0       -0.253769    2.098250   -0.300278
      8          1           0        1.566247    1.916702   -0.013109
      9          1           0       -2.405886   -1.827794    0.434909
     10          6           0        1.636302   -0.805883    0.175277
     11          1           0        2.570984   -0.245682    0.282344
     12          1           0        1.494609   -1.413666    1.078445
     13          1           0        1.749723   -1.510927   -0.658150
 ---------------------------------------------------------------------
                    Distance matrix (angstroms):
                    1          2          3          4          5
     1  C    0.000000
     2  C    1.489296   0.000000
     3  H    2.202952   1.092037   0.000000
     4  C    2.508739   1.335183   2.089290   0.000000
     5  H    2.786922   2.123219   3.075989   1.087922   0.000000
     6  C    1.337796   2.464747   2.835323   3.565718   3.867122
     7  H    2.122389   2.705998   2.774005   3.800453   4.268223
     8  H    2.118276   3.465475   3.874233   4.510062   4.656629
     9  H    3.494058   2.114165   2.420308   1.086168   1.850013
    10  C    1.513486   2.556684   3.374544   3.150926   3.043805
    11  H    2.171540   3.494334   4.241902   4.173658   3.995469
    12  H    2.169388   2.846110   3.840274   2.956460   2.488178
    13  H    2.159411   2.829970   3.442217   3.425997   3.477394
                    6          7          8          9         10
     6  C    0.000000
     7  H    1.087218   0.000000
     8  H    1.086839   1.851455   0.000000
     9  H    4.474296   4.537172   5.477208   0.000000
    10  C    2.495340   3.497501   2.729994   4.177438   0.000000
    11  H    2.630225   3.716544   2.402643   5.224518   1.094952
    12  H    3.228327   4.158276   3.505420   3.974859   1.097811
    13  H    3.213371   4.143454   3.492618   4.308627   1.097521
                   11         12         13
    11  H    0.000000
    12  H    1.776668   0.000000
    13  H    1.777595   1.757926   0.000000
 Stoichiometry    C5H8
 Framework group  C1[X(C5H8)]
 Deg. of freedom    33
 Full point group                 C1      NOp   1
 Largest Abelian subgroup         C1      NOp   1
 Largest concise Abelian subgroup C1      NOp   1
                         Standard orientation:                         
 ---------------------------------------------------------------------
 Center     Atomic      Atomic             Coordinates (Angstroms)
 Number     Number       Type             X           Y           Z
 ---------------------------------------------------------------------
      1          6           0        0.506810   -0.126134    0.061424
      2          6           0       -0.915271   -0.453966    0.358429
      3          1           0       -1.088538   -1.181068    1.154574
      4          6           0       -1.972608    0.067337   -0.268465
      5          1           0       -1.867141    0.785347   -1.078966
      6          6           0        1.400501   -1.086696   -0.199988
      7          1           0        1.122484   -2.137561   -0.220782
      8          1           0        2.440683   -0.851199   -0.409223
      9          1           0       -2.985288   -0.223093   -0.004096
     10          6           0        0.888269    1.338210    0.090139
     11          1           0        1.950703    1.484406   -0.130726
     12          1           0        0.303460    1.918083   -0.635763
     13          1           0        0.677432    1.772573    1.075750
 ---------------------------------------------------------------------
 Rotational constants (GHZ):           8.1254270           4.0260449           2.9203989
 Standard basis: 6-31G(d) (6D, 7F)
 There are    91 symmetry adapted cartesian basis functions of A   symmetry.
 There are    91 symmetry adapted basis functions of A   symmetry.
    91 basis functions,   172 primitive gaussians,    91 cartesian basis functions
    19 alpha electrons       19 beta electrons
       nuclear repulsion energy       159.3653185626 Hartrees.
 NAtoms=   13 NActive=   13 NUniq=   13 SFac= 1.00D+00 NAtFMM=   60 NAOKFM=F Big=F
 Integral buffers will be    131072 words long.
 Raffenetti 2 integral format.
 Two-electron integral symmetry is turned on.
 One-electron integrals computed using PRISM.
 NBasis=    91 RedAO= T EigKep=  3.64D-03  NBF=    91
 NBsUse=    91 1.00D-06 EigRej= -1.00D+00 NBFU=    91
 Initial guess from the checkpoint file:  "DATS_diene.chk"
 B after Tr=    -0.000000   -0.000000   -0.000000
         Rot=    0.999867   -0.014501    0.001186   -0.007374 Ang=  -1.87 deg.
 ExpMin= 1.61D-01 ExpMax= 3.05D+03 ExpMxC= 4.57D+02 IAcc=3 IRadAn=         5 AccDes= 0.00D+00
 Harris functional with IExCor=  402 and IRadAn=       5 diagonalized for initial guess.
 HarFok:  IExCor=  402 AccDes= 0.00D+00 IRadAn=         5 IDoV= 1 UseB2=F ITyADJ=14
 ICtDFT=  3500011 ScaDFX=  1.000000  1.000000  1.000000  1.000000
 FoFCou: FMM=F IPFlag=           0 FMFlag=      100000 FMFlg1=           0
         NFxFlg=           0 DoJE=T BraDBF=F KetDBF=T FulRan=T
         wScrn=  0.000000 ICntrl=       500 IOpCl=  0 I1Cent=   200000004 NGrid=           0
         NMat0=    1 NMatS0=      1 NMatT0=    0 NMatD0=    1 NMtDS0=    0 NMtDT0=    0
 Petite list used in FoFCou.
 Requested convergence on RMS density matrix=1.00D-08 within 128 cycles.
 Requested convergence on MAX density matrix=1.00D-06.
 Requested convergence on             energy=1.00D-06.
 No special actions if energy rises.
 Integral accuracy reduced to 1.0D-05 until final iterations.
 Initial convergence to 1.0D-05 achieved.  Increase integral accuracy.
 SCF Done:  E(RB3LYP) =  -195.301883686     A.U. after   12 cycles
            NFock= 12  Conv=0.30D-08     -V/T= 2.0103
 Calling FoFJK, ICntrl=      2127 FMM=F ISym2X=0 I1Cent= 0 IOpClX= 0 NMat=1 NMatS=1 NMatT=0.
 ***** Axes restored to original set *****
 -------------------------------------------------------------------
 Center     Atomic                   Forces (Hartrees/Bohr)
 Number     Number              X              Y              Z
 -------------------------------------------------------------------
      1        6           0.001328114   -0.003092677    0.000822548
      2        6          -0.000470801    0.001770327   -0.001383879
      3        1          -0.000195974    0.001721200    0.001597459
      4        6           0.000820148   -0.001527122    0.000115655
      5        1          -0.000128766   -0.000609358   -0.000310027
      6        6          -0.000313248    0.000802987   -0.001988313
      7        1           0.000164333    0.000055500   -0.000455046
      8        1          -0.000051101    0.000367178    0.000218143
      9        1          -0.000162829   -0.000183170    0.000245274
     10        6          -0.000616654    0.000404691    0.000792607
     11        1          -0.000484827    0.000167710    0.000311289
     12        1           0.000070585    0.000220886   -0.000047800
     13        1           0.000041020   -0.000098152    0.000082089
 -------------------------------------------------------------------
 Cartesian Forces:  Max     0.003092677 RMS     0.000922317

 GradGradGradGradGradGradGradGradGradGradGradGradGradGradGradGradGradGrad
 Berny optimization.
 Using GEDIIS/GDIIS optimizer.
 FormGI is forming the generalized inverse of G from B-inverse, IUseBI=4.
 Internal  Forces:  Max     0.002295399 RMS     0.000839768
 Search for a local minimum.
 Step number   2 out of a maximum of   58
 All quantities printed in internal units (Hartrees-Bohrs-Radians)
 Mixed Optimization -- En-DIIS/RFO-DIIS
 Update second derivatives using D2CorX and points    1    2
 DE= -1.61D-03 DEPred=-1.10D-03 R= 1.46D+00
 TightC=F SS=  1.41D+00  RLast= 3.18D-01 DXNew= 5.0454D-01 9.5328D-01
 Trust test= 1.46D+00 RLast= 3.18D-01 DXMaxT set to 5.05D-01
 ITU=  1  0
 Use linear search instead of GDIIS.
     Eigenvalues ---    0.00217   0.00614   0.01420   0.02028   0.02865
     Eigenvalues ---    0.02887   0.02909   0.04555   0.07022   0.07279
     Eigenvalues ---    0.15943   0.16000   0.16000   0.16000   0.16000
     Eigenvalues ---    0.16000   0.16000   0.16515   0.22573   0.24830
     Eigenvalues ---    0.25088   0.31337   0.33839   0.33909   0.34357
     Eigenvalues ---    0.34584   0.35143   0.35177   0.35230   0.35250
     Eigenvalues ---    0.39485   0.57310   0.63285
 RFO step:  Lambda=-2.97761943D-03 EMin= 2.17451188D-03
 Quartic linear search produced a step of  1.21460.
 Iteration  1 RMS(Cart)=  0.10116412 RMS(Int)=  0.07558988
 Iteration  2 RMS(Cart)=  0.11387031 RMS(Int)=  0.01873494
 Iteration  3 RMS(Cart)=  0.03527815 RMS(Int)=  0.00064309
 Iteration  4 RMS(Cart)=  0.00084610 RMS(Int)=  0.00017827
 Iteration  5 RMS(Cart)=  0.00000033 RMS(Int)=  0.00017827
 Variable       Old X    -DE/DX   Delta X   Delta X   Delta X     New X
                                 (Linear)    (Quad)   (Total)
    R1        2.81436  -0.00042   0.02478   0.00691   0.03169   2.84605
    R2        2.52807   0.00131  -0.00810   0.00078  -0.00732   2.52075
    R3        2.86007  -0.00102   0.00369  -0.00390  -0.00022   2.85986
    R4        2.06365  -0.00081   0.00089  -0.00343  -0.00254   2.06111
    R5        2.52313   0.00131  -0.00646   0.00133  -0.00513   2.51800
    R6        2.05587  -0.00016   0.00185  -0.00006   0.00179   2.05767
    R7        2.05256   0.00018  -0.00051   0.00063   0.00012   2.05268
    R8        2.05454  -0.00002   0.00231   0.00072   0.00303   2.05758
    R9        2.05383   0.00014  -0.00003   0.00062   0.00058   2.05441
   R10        2.06916  -0.00030   0.00220  -0.00060   0.00159   2.07075
   R11        2.07456  -0.00017  -0.00029  -0.00091  -0.00120   2.07336
   R12        2.07401   0.00000  -0.00257  -0.00089  -0.00346   2.07055
    A1        2.11624  -0.00172  -0.02301  -0.01910  -0.04212   2.07412
    A2        2.03740   0.00131   0.02033   0.01554   0.03587   2.07328
    A3        2.12945   0.00041   0.00274   0.00357   0.00630   2.13575
    A4        2.03025  -0.00045   0.01702   0.00133   0.01778   2.04803
    A5        2.18534  -0.00003  -0.01592  -0.00584  -0.02233   2.16301
    A6        2.06760   0.00047  -0.00052   0.00450   0.00341   2.07101
    A7        2.13023   0.00034   0.00549   0.00532   0.01057   2.14080
    A8        2.11723   0.00014  -0.00255   0.00054  -0.00226   2.11498
    A9        2.03553  -0.00047  -0.00313  -0.00563  -0.00900   2.02653
   A10        2.12577  -0.00005   0.00172   0.00013   0.00170   2.12748
   A11        2.11928   0.00036  -0.00159   0.00298   0.00124   2.12052
   A12        2.03811  -0.00031  -0.00007  -0.00308  -0.00330   2.03481
   A13        1.94971  -0.00057   0.00114  -0.00604  -0.00490   1.94481
   A14        1.94362  -0.00006   0.00317  -0.00039   0.00278   1.94640
   A15        1.93001   0.00038  -0.00651   0.00322  -0.00329   1.92672
   A16        1.88913   0.00000  -0.00010  -0.00317  -0.00328   1.88585
   A17        1.89094   0.00028   0.00658   0.00670   0.01328   1.90422
   A18        1.85712  -0.00001  -0.00430   0.00007  -0.00423   1.85288
    D1        0.92739  -0.00227  -0.19015  -0.29140  -0.48175   0.44564
    D2       -2.21321  -0.00228  -0.14739  -0.28343  -0.43070  -2.64390
    D3       -2.19966  -0.00228  -0.19434  -0.29269  -0.48716  -2.68683
    D4        0.94292  -0.00230  -0.15158  -0.28472  -0.43611   0.50682
    D5        0.01647  -0.00042   0.06426  -0.00527   0.05907   0.07554
    D6       -3.13289  -0.00023   0.03808  -0.00179   0.03638  -3.09652
    D7       -3.14044  -0.00040   0.06883  -0.00383   0.06491  -3.07553
    D8       -0.00661  -0.00021   0.04266  -0.00035   0.04222   0.03561
    D9        3.13318   0.00026   0.02236   0.01311   0.03555  -3.11446
   D10       -1.03534  -0.00016   0.02524   0.00455   0.02988  -1.00546
   D11        1.02565   0.00003   0.01769   0.00647   0.02424   1.04990
   D12        0.00625   0.00027   0.01842   0.01201   0.03036   0.03660
   D13        2.12091  -0.00016   0.02130   0.00346   0.02469   2.14560
   D14       -2.10128   0.00004   0.01375   0.00538   0.01905  -2.08223
   D15        0.01439  -0.00048   0.04698  -0.01139   0.03576   0.05015
   D16        3.13419  -0.00003   0.00899   0.00163   0.01080  -3.13820
   D17       -3.12619  -0.00049   0.09088  -0.00326   0.08744  -3.03875
   D18       -0.00639  -0.00004   0.05288   0.00976   0.06248   0.05608
         Item               Value     Threshold  Converged?
 Maximum Force            0.002295     0.000450     NO 
 RMS     Force            0.000840     0.000300     NO 
 Maximum Displacement     0.678890     0.001800     NO 
 RMS     Displacement     0.243297     0.001200     NO 
 Predicted change in Energy=-3.173011D-03
 GradGradGradGradGradGradGradGradGradGradGradGradGradGradGradGradGradGrad

                          Input orientation:                          
 ---------------------------------------------------------------------
 Center     Atomic      Atomic             Coordinates (Angstroms)
 Number     Number       Type             X           Y           Z
 ---------------------------------------------------------------------
      1          6           0        0.454788    0.134101   -0.050933
      2          6           0       -0.933217   -0.439436   -0.163777
      3          1           0       -1.642383    0.087161   -0.803613
      4          6           0       -1.353503   -1.508336    0.511711
      5          1           0       -0.730169   -2.026411    1.238822
      6          6           0        0.631265    1.438772   -0.265512
      7          1           0       -0.205989    2.109754   -0.450774
      8          1           0        1.619631    1.890617   -0.236228
      9          1           0       -2.364974   -1.886317    0.393573
     10          6           0        1.601075   -0.793239    0.290180
     11          1           0        2.548015   -0.247365    0.368237
     12          1           0        1.428960   -1.313097    1.240925
     13          1           0        1.699447   -1.574848   -0.471359
 ---------------------------------------------------------------------
                    Distance matrix (angstroms):
                    1          2          3          4          5
     1  C    0.000000
     2  C    1.506067   0.000000
     3  H    2.228645   1.090693   0.000000
     4  C    2.506808   1.332469   2.087856   0.000000
     5  H    2.781259   2.127675   3.077477   1.088870   0.000000
     6  C    1.333924   2.446552   2.699236   3.637145   4.015471
     7  H    2.121251   2.666383   2.505714   3.915832   4.498595
     8  H    2.115784   3.457084   3.770293   4.577316   4.800045
     9  H    3.497246   2.110458   2.418680   1.086231   1.845713
    10  C    1.513370   2.598825   3.534332   3.047946   2.802737
    11  H    2.168598   3.526884   4.364009   4.102741   3.830067
    12  H    2.170781   2.883809   3.946391   2.883049   2.273908
    13  H    2.155560   2.883520   3.747064   3.208014   3.005272
                    6          7          8          9         10
     6  C    0.000000
     7  H    1.088822   0.000000
     8  H    1.087148   1.851200   0.000000
     9  H    4.524163   4.619818   5.526206   0.000000
    10  C    2.496236   3.498837   2.735055   4.115222   0.000000
    11  H    2.630328   3.716360   2.407953   5.179215   1.095795
    12  H    3.237043   4.153410   3.533004   3.929442   1.097175
    13  H    3.203949   4.148181   3.474349   4.167090   1.095688
                   11         12         13
    11  H    0.000000
    12  H    1.774727   0.000000
    13  H    1.785273   1.753166   0.000000
 Stoichiometry    C5H8
 Framework group  C1[X(C5H8)]
 Deg. of freedom    33
 Full point group                 C1      NOp   1
 Largest Abelian subgroup         C1      NOp   1
 Largest concise Abelian subgroup C1      NOp   1
                         Standard orientation:                         
 ---------------------------------------------------------------------
 Center     Atomic      Atomic             Coordinates (Angstroms)
 Number     Number       Type             X           Y           Z
 ---------------------------------------------------------------------
      1          6           0        0.520440   -0.109322    0.037026
      2          6           0       -0.885843   -0.621573    0.204970
      3          1           0       -1.007553   -1.630557    0.600887
      4          6           0       -1.973411    0.059942   -0.153084
      5          1           0       -1.923485    1.031907   -0.641376
      6          6           0        1.509363   -0.988247   -0.132903
      7          1           0        1.320286   -2.056770   -0.222587
      8          1           0        2.545090   -0.668690   -0.216824
      9          1           0       -2.968090   -0.351868   -0.008426
     10          6           0        0.762058    1.384041    0.079177
     11          1           0        1.819139    1.623288   -0.082402
     12          1           0        0.174192    1.908581   -0.684410
     13          1           0        0.444781    1.795060    1.044025
 ---------------------------------------------------------------------
 Rotational constants (GHZ):           8.2585027           4.1181025           2.8577288
 Standard basis: 6-31G(d) (6D, 7F)
 There are    91 symmetry adapted cartesian basis functions of A   symmetry.
 There are    91 symmetry adapted basis functions of A   symmetry.
    91 basis functions,   172 primitive gaussians,    91 cartesian basis functions
    19 alpha electrons       19 beta electrons
       nuclear repulsion energy       159.4919386281 Hartrees.
 NAtoms=   13 NActive=   13 NUniq=   13 SFac= 1.00D+00 NAtFMM=   60 NAOKFM=F Big=F
 Integral buffers will be    131072 words long.
 Raffenetti 2 integral format.
 Two-electron integral symmetry is turned on.
 One-electron integrals computed using PRISM.
 NBasis=    91 RedAO= T EigKep=  3.43D-03  NBF=    91
 NBsUse=    91 1.00D-06 EigRej= -1.00D+00 NBFU=    91
 Initial guess from the checkpoint file:  "DATS_diene.chk"
 B after Tr=    -0.000000    0.000000    0.000000
         Rot=    0.999208   -0.024905    0.003043   -0.030890 Ang=  -4.56 deg.
 ExpMin= 1.61D-01 ExpMax= 3.05D+03 ExpMxC= 4.57D+02 IAcc=3 IRadAn=         5 AccDes= 0.00D+00
 Harris functional with IExCor=  402 and IRadAn=       5 diagonalized for initial guess.
 HarFok:  IExCor=  402 AccDes= 0.00D+00 IRadAn=         5 IDoV= 1 UseB2=F ITyADJ=14
 ICtDFT=  3500011 ScaDFX=  1.000000  1.000000  1.000000  1.000000
 FoFCou: FMM=F IPFlag=           0 FMFlag=      100000 FMFlg1=           0
         NFxFlg=           0 DoJE=T BraDBF=F KetDBF=T FulRan=T
         wScrn=  0.000000 ICntrl=       500 IOpCl=  0 I1Cent=   200000004 NGrid=           0
         NMat0=    1 NMatS0=      1 NMatT0=    0 NMatD0=    1 NMtDS0=    0 NMtDT0=    0
 Petite list used in FoFCou.
 Requested convergence on RMS density matrix=1.00D-08 within 128 cycles.
 Requested convergence on MAX density matrix=1.00D-06.
 Requested convergence on             energy=1.00D-06.
 No special actions if energy rises.
 Integral accuracy reduced to 1.0D-05 until final iterations.
 Initial convergence to 1.0D-05 achieved.  Increase integral accuracy.
 SCF Done:  E(RB3LYP) =  -195.305580092     A.U. after   13 cycles
            NFock= 13  Conv=0.35D-08     -V/T= 2.0104
 Calling FoFJK, ICntrl=      2127 FMM=F ISym2X=0 I1Cent= 0 IOpClX= 0 NMat=1 NMatS=1 NMatT=0.
 ***** Axes restored to original set *****
 -------------------------------------------------------------------
 Center     Atomic                   Forces (Hartrees/Bohr)
 Number     Number              X              Y              Z
 -------------------------------------------------------------------
      1        6          -0.016603377   -0.009384103   -0.001790096
      2        6           0.016642238    0.006651100    0.005732751
      3        1           0.003266286    0.000928113   -0.000647805
      4        6          -0.003874883   -0.006482249    0.003112732
      5        1           0.000290526   -0.001325574   -0.003537214
      6        6           0.003441999    0.008732068   -0.001492513
      7        1           0.001176151   -0.001281269   -0.002983262
      8        1          -0.000369188    0.001060535    0.001780305
      9        1          -0.000703150    0.000363756    0.001099180
     10        6          -0.003552124    0.000773722   -0.000690171
     11        1          -0.001346232   -0.000594389   -0.000455616
     12        1           0.000363877    0.001146254    0.000637998
     13        1           0.001267878   -0.000587963   -0.000766289
 -------------------------------------------------------------------
 Cartesian Forces:  Max     0.016642238 RMS     0.004917274

 GradGradGradGradGradGradGradGradGradGradGradGradGradGradGradGradGradGrad
 Berny optimization.
 Using GEDIIS/GDIIS optimizer.
 FormGI is forming the generalized inverse of G from B-inverse, IUseBI=4.
 Internal  Forces:  Max     0.014879549 RMS     0.003481309
 Search for a local minimum.
 Step number   3 out of a maximum of   58
 All quantities printed in internal units (Hartrees-Bohrs-Radians)
 Mixed Optimization -- RFO/linear search
 Update second derivatives using D2CorX and points    2    3
 DE= -3.70D-03 DEPred=-3.17D-03 R= 1.16D+00
 TightC=F SS=  1.41D+00  RLast= 9.38D-01 DXNew= 8.4853D-01 2.8126D+00
 Trust test= 1.16D+00 RLast= 9.38D-01 DXMaxT set to 8.49D-01
 ITU=  1  1  0
 Use linear search instead of GDIIS.
     Eigenvalues ---    0.00106   0.00621   0.01387   0.02048   0.02868
     Eigenvalues ---    0.02888   0.02914   0.04698   0.07034   0.07343
     Eigenvalues ---    0.15923   0.15999   0.16000   0.16000   0.16000
     Eigenvalues ---    0.16000   0.16034   0.16541   0.22969   0.25045
     Eigenvalues ---    0.26160   0.31312   0.33839   0.33912   0.34362
     Eigenvalues ---    0.34644   0.35143   0.35179   0.35235   0.35251
     Eigenvalues ---    0.46729   0.57360   0.82555
 RFO step:  Lambda=-2.20280523D-03 EMin= 1.05783342D-03
 Quartic linear search produced a step of  0.38464.
 Iteration  1 RMS(Cart)=  0.11173184 RMS(Int)=  0.05005621
 Iteration  2 RMS(Cart)=  0.09800036 RMS(Int)=  0.00456584
 Iteration  3 RMS(Cart)=  0.00661540 RMS(Int)=  0.00004346
 Iteration  4 RMS(Cart)=  0.00001503 RMS(Int)=  0.00004223
 Iteration  5 RMS(Cart)=  0.00000000 RMS(Int)=  0.00004223
 Variable       Old X    -DE/DX   Delta X   Delta X   Delta X     New X
                                 (Linear)    (Quad)   (Total)
    R1        2.84605  -0.01488   0.01219  -0.01106   0.00113   2.84718
    R2        2.52075   0.00932  -0.00281   0.00514   0.00232   2.52307
    R3        2.85986  -0.00321  -0.00008  -0.00419  -0.00427   2.85558
    R4        2.06111  -0.00130  -0.00098  -0.00162  -0.00259   2.05852
    R5        2.51800   0.00767  -0.00197   0.00416   0.00219   2.52019
    R6        2.05767  -0.00156   0.00069  -0.00186  -0.00117   2.05649
    R7        2.05268   0.00041   0.00005   0.00032   0.00036   2.05304
    R8        2.05758  -0.00119   0.00117  -0.00046   0.00071   2.05829
    R9        2.05441   0.00015   0.00022   0.00022   0.00045   2.05486
   R10        2.07075  -0.00149   0.00061  -0.00121  -0.00060   2.07015
   R11        2.07336  -0.00005  -0.00046  -0.00028  -0.00074   2.07262
   R12        2.07055   0.00107  -0.00133  -0.00002  -0.00135   2.06920
    A1        2.07412   0.00421  -0.01620  -0.00810  -0.02430   2.04982
    A2        2.07328  -0.00296   0.01380   0.01024   0.02403   2.09731
    A3        2.13575  -0.00124   0.00242  -0.00214   0.00028   2.13603
    A4        2.04803  -0.00656   0.00684  -0.01254  -0.00585   2.04218
    A5        2.16301   0.00656  -0.00859   0.00952   0.00079   2.16380
    A6        2.07101   0.00006   0.00131   0.00373   0.00491   2.07592
    A7        2.14080  -0.00016   0.00407   0.00457   0.00860   2.14940
    A8        2.11498   0.00045  -0.00087  -0.00055  -0.00145   2.11353
    A9        2.02653  -0.00022  -0.00346  -0.00360  -0.00709   2.01944
   A10        2.12748  -0.00048   0.00066  -0.00073  -0.00010   2.12737
   A11        2.12052   0.00100   0.00048   0.00311   0.00355   2.12408
   A12        2.03481  -0.00050  -0.00127  -0.00227  -0.00357   2.03124
   A13        1.94481  -0.00089  -0.00188  -0.00553  -0.00742   1.93739
   A14        1.94640  -0.00039   0.00107   0.00263   0.00369   1.95009
   A15        1.92672   0.00159  -0.00126   0.00278   0.00151   1.92824
   A16        1.88585  -0.00008  -0.00126  -0.00398  -0.00525   1.88060
   A17        1.90422  -0.00070   0.00511   0.00051   0.00563   1.90985
   A18        1.85288   0.00050  -0.00163   0.00389   0.00225   1.85513
    D1        0.44564  -0.00190  -0.18530  -0.18584  -0.37118   0.07446
    D2       -2.64390  -0.00335  -0.16566  -0.20221  -0.36785  -3.01176
    D3       -2.68683  -0.00181  -0.18738  -0.18478  -0.37218  -3.05901
    D4        0.50682  -0.00326  -0.16774  -0.20115  -0.36886   0.13796
    D5        0.07554  -0.00279   0.02272  -0.01174   0.01102   0.08655
    D6       -3.09652  -0.00167   0.01399  -0.00738   0.00665  -3.08987
    D7       -3.07553  -0.00289   0.02497  -0.01277   0.01217  -3.06336
    D8        0.03561  -0.00177   0.01624  -0.00841   0.00780   0.04340
    D9       -3.11446  -0.00008   0.01367  -0.01881  -0.00512  -3.11958
   D10       -1.00546  -0.00108   0.01149  -0.02591  -0.01440  -1.01986
   D11        1.04990   0.00032   0.00933  -0.01764  -0.00828   1.04162
   D12        0.03660  -0.00002   0.01168  -0.01769  -0.00605   0.03056
   D13        2.14560  -0.00102   0.00950  -0.02479  -0.01532   2.13027
   D14       -2.08223   0.00038   0.00733  -0.01651  -0.00921  -2.09143
   D15        0.05015  -0.00235   0.01375  -0.00392   0.00986   0.06001
   D16       -3.13820  -0.00045   0.00415   0.00712   0.01130  -3.12690
   D17       -3.03875  -0.00364   0.03363  -0.02005   0.01355  -3.02520
   D18        0.05608  -0.00174   0.02403  -0.00901   0.01499   0.07108
         Item               Value     Threshold  Converged?
 Maximum Force            0.014880     0.000450     NO 
 RMS     Force            0.003481     0.000300     NO 
 Maximum Displacement     0.706085     0.001800     NO 
 RMS     Displacement     0.207260     0.001200     NO 
 Predicted change in Energy=-2.799773D-03
 GradGradGradGradGradGradGradGradGradGradGradGradGradGradGradGradGradGrad

                          Input orientation:                          
 ---------------------------------------------------------------------
 Center     Atomic      Atomic             Coordinates (Angstroms)
 Number     Number       Type             X           Y           Z
 ---------------------------------------------------------------------
      1          6           0        0.451420    0.143669   -0.020834
      2          6           0       -0.962896   -0.374538   -0.055636
      3          1           0       -1.729039    0.303339   -0.429969
      4          6           0       -1.328257   -1.574691    0.396811
      5          1           0       -0.638772   -2.263194    0.881434
      6          6           0        0.648553    1.418082   -0.366730
      7          1           0       -0.180410    2.089190   -0.587606
      8          1           0        1.645341    1.850254   -0.411952
      9          1           0       -2.360939   -1.906671    0.336216
     10          6           0        1.585135   -0.769862    0.383643
     11          1           0        2.541225   -0.235131    0.378489
     12          1           0        1.436854   -1.180071    1.389958
     13          1           0        1.644732   -1.629018   -0.292572
 ---------------------------------------------------------------------
                    Distance matrix (angstroms):
                    1          2          3          4          5
     1  C    0.000000
     2  C    1.506665   0.000000
     3  H    2.224250   1.089320   0.000000
     4  C    2.508872   1.333628   2.090738   0.000000
     5  H    2.792060   2.133115   3.081485   1.088250   0.000000
     6  C    1.335153   2.430439   2.626708   3.667078   4.094742
     7  H    2.122614   2.639173   2.369043   3.963666   4.616430
     8  H    2.119163   3.446674   3.712103   4.607237   4.879598
     9  H    3.498678   2.110807   2.422908   1.086423   1.841258
    10  C    1.511109   2.615666   3.577355   3.022545   2.724627
    11  H    2.161071   3.533661   4.379350   4.094832   3.805045
    12  H    2.171106   2.915034   3.941512   2.964440   2.395824
    13  H    2.154125   2.903374   3.890399   3.052354   2.644779
                    6          7          8          9         10
     6  C    0.000000
     7  H    1.089198   0.000000
     8  H    1.087384   1.849679   0.000000
     9  H    4.539290   4.644896   5.542971   0.000000
    10  C    2.495465   3.497808   2.738907   4.106834   0.000000
    11  H    2.621196   3.707169   2.403380   5.179483   1.095478
    12  H    3.233848   4.149021   3.531745   4.007686   1.096781
    13  H    3.206664   4.152501   3.481320   4.064217   1.094974
                   11         12         13
    11  H    0.000000
    12  H    1.770767   0.000000
    13  H    1.788000   1.753760   0.000000
 Stoichiometry    C5H8
 Framework group  C1[X(C5H8)]
 Deg. of freedom    33
 Full point group                 C1      NOp   1
 Largest Abelian subgroup         C1      NOp   1
 Largest concise Abelian subgroup C1      NOp   1
                         Standard orientation:                         
 ---------------------------------------------------------------------
 Center     Atomic      Atomic             Coordinates (Angstroms)
 Number     Number       Type             X           Y           Z
 ---------------------------------------------------------------------
      1          6           0        0.522077   -0.097840    0.010319
      2          6           0       -0.868057   -0.676746    0.059683
      3          1           0       -0.950330   -1.760780    0.128361
      4          6           0       -1.981983    0.050196   -0.036689
      5          1           0       -1.978448    1.123864   -0.214205
      6          6           0        1.544552   -0.955289   -0.033927
      7          1           0        1.390718   -2.030538   -0.114724
      8          1           0        2.577054   -0.614361   -0.023277
      9          1           0       -2.962177   -0.415098    0.018397
     10          6           0        0.721790    1.399963    0.022602
     11          1           0        1.785355    1.654815   -0.040276
     12          1           0        0.211510    1.884609   -0.818625
     13          1           0        0.296038    1.835783    0.932417
 ---------------------------------------------------------------------
 Rotational constants (GHZ):           8.3365278           4.1517607           2.8244651
 Standard basis: 6-31G(d) (6D, 7F)
 There are    91 symmetry adapted cartesian basis functions of A   symmetry.
 There are    91 symmetry adapted basis functions of A   symmetry.
    91 basis functions,   172 primitive gaussians,    91 cartesian basis functions
    19 alpha electrons       19 beta electrons
       nuclear repulsion energy       159.5521200031 Hartrees.
 NAtoms=   13 NActive=   13 NUniq=   13 SFac= 1.00D+00 NAtFMM=   60 NAOKFM=F Big=F
 Integral buffers will be    131072 words long.
 Raffenetti 2 integral format.
 Two-electron integral symmetry is turned on.
 One-electron integrals computed using PRISM.
 NBasis=    91 RedAO= T EigKep=  3.07D-03  NBF=    91
 NBsUse=    91 1.00D-06 EigRej= -1.00D+00 NBFU=    91
 Initial guess from the checkpoint file:  "DATS_diene.chk"
 B after Tr=     0.000000   -0.000000   -0.000000
         Rot=    0.999937   -0.002241    0.002097   -0.010779 Ang=  -1.28 deg.
 ExpMin= 1.61D-01 ExpMax= 3.05D+03 ExpMxC= 4.57D+02 IAcc=3 IRadAn=         5 AccDes= 0.00D+00
 Harris functional with IExCor=  402 and IRadAn=       5 diagonalized for initial guess.
 HarFok:  IExCor=  402 AccDes= 0.00D+00 IRadAn=         5 IDoV= 1 UseB2=F ITyADJ=14
 ICtDFT=  3500011 ScaDFX=  1.000000  1.000000  1.000000  1.000000
 FoFCou: FMM=F IPFlag=           0 FMFlag=      100000 FMFlg1=           0
         NFxFlg=           0 DoJE=T BraDBF=F KetDBF=T FulRan=T
         wScrn=  0.000000 ICntrl=       500 IOpCl=  0 I1Cent=   200000004 NGrid=           0
         NMat0=    1 NMatS0=      1 NMatT0=    0 NMatD0=    1 NMtDS0=    0 NMtDT0=    0
 Petite list used in FoFCou.
 Requested convergence on RMS density matrix=1.00D-08 within 128 cycles.
 Requested convergence on MAX density matrix=1.00D-06.
 Requested convergence on             energy=1.00D-06.
 No special actions if energy rises.
 Integral accuracy reduced to 1.0D-05 until final iterations.
 Initial convergence to 1.0D-05 achieved.  Increase integral accuracy.
 SCF Done:  E(RB3LYP) =  -195.308054101     A.U. after   13 cycles
            NFock= 13  Conv=0.91D-08     -V/T= 2.0104
 Calling FoFJK, ICntrl=      2127 FMM=F ISym2X=0 I1Cent= 0 IOpClX= 0 NMat=1 NMatS=1 NMatT=0.
 ***** Axes restored to original set *****
 -------------------------------------------------------------------
 Center     Atomic                   Forces (Hartrees/Bohr)
 Number     Number              X              Y              Z
 -------------------------------------------------------------------
      1        6          -0.023078668   -0.006503591   -0.000124553
      2        6           0.022624018    0.003760015    0.008117405
      3        1           0.003125553    0.000616295   -0.003270011
      4        6          -0.005089714   -0.006455070    0.003165667
      5        1           0.000849060   -0.000005222   -0.003906830
      6        6           0.004996411    0.009881776   -0.000703977
      7        1           0.001251051   -0.001964207   -0.002920674
      8        1          -0.000288073    0.000991881    0.001585085
      9        1          -0.000529199    0.000272617    0.001039203
     10        6          -0.003958403    0.000517569   -0.001461219
     11        1          -0.001046727   -0.001138732   -0.001215862
     12        1          -0.000898343    0.001102420    0.000797206
     13        1           0.002043033   -0.001075752   -0.001101439
 -------------------------------------------------------------------
 Cartesian Forces:  Max     0.023078668 RMS     0.006106859

 GradGradGradGradGradGradGradGradGradGradGradGradGradGradGradGradGradGrad
 Berny optimization.
 Using GEDIIS/GDIIS optimizer.
 FormGI is forming the generalized inverse of G from B-inverse, IUseBI=4.
 Internal  Forces:  Max     0.019189812 RMS     0.004125492
 Search for a local minimum.
 Step number   4 out of a maximum of   58
 All quantities printed in internal units (Hartrees-Bohrs-Radians)
 Mixed Optimization -- RFO/linear search
 Update second derivatives using D2CorX and points    3    4
 DE= -2.47D-03 DEPred=-2.80D-03 R= 8.84D-01
 TightC=F SS=  1.41D+00  RLast= 7.42D-01 DXNew= 1.4270D+00 2.2267D+00
 Trust test= 8.84D-01 RLast= 7.42D-01 DXMaxT set to 1.43D+00
 ITU=  1  1  1  0
 Use linear search instead of GDIIS.
     Eigenvalues ---    0.00444   0.00615   0.01367   0.02032   0.02871
     Eigenvalues ---    0.02887   0.02915   0.03672   0.07075   0.07196
     Eigenvalues ---    0.15831   0.15999   0.16000   0.16000   0.16000
     Eigenvalues ---    0.16013   0.16026   0.16318   0.22230   0.25043
     Eigenvalues ---    0.26507   0.31200   0.33839   0.33916   0.34364
     Eigenvalues ---    0.34651   0.35152   0.35179   0.35236   0.35249
     Eigenvalues ---    0.38597   0.57269   0.58317
 RFO step:  Lambda=-3.02573377D-03 EMin= 4.44283625D-03
 Quartic linear search produced a step of  0.17880.
 Iteration  1 RMS(Cart)=  0.08066174 RMS(Int)=  0.00354418
 Iteration  2 RMS(Cart)=  0.00502634 RMS(Int)=  0.00019337
 Iteration  3 RMS(Cart)=  0.00000814 RMS(Int)=  0.00019324
 Iteration  4 RMS(Cart)=  0.00000000 RMS(Int)=  0.00019324
 Variable       Old X    -DE/DX   Delta X   Delta X   Delta X     New X
                                 (Linear)    (Quad)   (Total)
    R1        2.84718  -0.01919   0.00020  -0.04474  -0.04454   2.80264
    R2        2.52307   0.00991   0.00042   0.01387   0.01428   2.53736
    R3        2.85558  -0.00334  -0.00076  -0.00921  -0.00997   2.84561
    R4        2.05852  -0.00069  -0.00046  -0.00131  -0.00177   2.05674
    R5        2.52019   0.00698   0.00039   0.00898   0.00937   2.52956
    R6        2.05649  -0.00120  -0.00021  -0.00273  -0.00294   2.05355
    R7        2.05304   0.00036   0.00006   0.00069   0.00076   2.05380
    R8        2.05829  -0.00157   0.00013  -0.00325  -0.00313   2.05516
    R9        2.05486   0.00006   0.00008   0.00012   0.00020   2.05506
   R10        2.07015  -0.00146  -0.00011  -0.00311  -0.00322   2.06693
   R11        2.07262   0.00044  -0.00013   0.00127   0.00114   2.07376
   R12        2.06920   0.00164  -0.00024   0.00336   0.00312   2.07232
    A1        2.04982   0.00869  -0.00435   0.02054   0.01619   2.06601
    A2        2.09731  -0.00744   0.00430  -0.01607  -0.01178   2.08553
    A3        2.13603  -0.00125   0.00005  -0.00448  -0.00443   2.13160
    A4        2.04218  -0.00626  -0.00105  -0.02637  -0.02795   2.01423
    A5        2.16380   0.00589   0.00014   0.02036   0.01997   2.18377
    A6        2.07592   0.00046   0.00088   0.00891   0.00926   2.08517
    A7        2.14940  -0.00150   0.00154  -0.00518  -0.00390   2.14550
    A8        2.11353   0.00087  -0.00026   0.00397   0.00345   2.11697
    A9        2.01944   0.00071  -0.00127   0.00280   0.00127   2.02071
   A10        2.12737  -0.00053  -0.00002  -0.00224  -0.00237   2.12501
   A11        2.12408   0.00084   0.00064   0.00483   0.00536   2.12944
   A12        2.03124  -0.00027  -0.00064  -0.00177  -0.00252   2.02873
   A13        1.93739  -0.00022  -0.00133  -0.00374  -0.00508   1.93231
   A14        1.95009  -0.00206   0.00066  -0.00899  -0.00835   1.94174
   A15        1.92824   0.00238   0.00027   0.01216   0.01244   1.94068
   A16        1.88060   0.00084  -0.00094   0.00315   0.00217   1.88278
   A17        1.90985  -0.00168   0.00101  -0.01058  -0.00956   1.90029
   A18        1.85513   0.00072   0.00040   0.00808   0.00848   1.86361
    D1        0.07446  -0.00003  -0.06637  -0.01279  -0.07946  -0.00501
    D2       -3.01176  -0.00193  -0.06577  -0.07497  -0.14044   3.13099
    D3       -3.05901   0.00005  -0.06654  -0.01059  -0.07743  -3.13644
    D4        0.13796  -0.00185  -0.06595  -0.07276  -0.13841  -0.00045
    D5        0.08655  -0.00291   0.00197  -0.05525  -0.05328   0.03328
    D6       -3.08987  -0.00153   0.00119  -0.02598  -0.02478  -3.11465
    D7       -3.06336  -0.00302   0.00218  -0.05756  -0.05540  -3.11876
    D8        0.04340  -0.00163   0.00139  -0.02829  -0.02690   0.01650
    D9       -3.11958  -0.00029  -0.00092  -0.01850  -0.01943  -3.13901
   D10       -1.01986  -0.00077  -0.00257  -0.02315  -0.02570  -1.04556
   D11        1.04162   0.00037  -0.00148  -0.01086  -0.01232   1.02930
   D12        0.03056  -0.00025  -0.00108  -0.01630  -0.01742   0.01314
   D13        2.13027  -0.00073  -0.00274  -0.02095  -0.02369   2.10659
   D14       -2.09143   0.00040  -0.00165  -0.00866  -0.01030  -2.10174
   D15        0.06001  -0.00227   0.00176  -0.02730  -0.02525   0.03477
   D16       -3.12690  -0.00015   0.00202   0.01669   0.01900  -3.10790
   D17       -3.02520  -0.00401   0.00242  -0.08957  -0.08744  -3.11263
   D18        0.07108  -0.00188   0.00268  -0.04558  -0.04319   0.02788
         Item               Value     Threshold  Converged?
 Maximum Force            0.019190     0.000450     NO 
 RMS     Force            0.004125     0.000300     NO 
 Maximum Displacement     0.315152     0.001800     NO 
 RMS     Displacement     0.080636     0.001200     NO 
 Predicted change in Energy=-1.719298D-03
 GradGradGradGradGradGradGradGradGradGradGradGradGradGradGradGradGradGrad

                          Input orientation:                          
 ---------------------------------------------------------------------
 Center     Atomic      Atomic             Coordinates (Angstroms)
 Number     Number       Type             X           Y           Z
 ---------------------------------------------------------------------
      1          6           0        0.439092    0.151454    0.001272
      2          6           0       -0.953917   -0.357421    0.013223
      3          1           0       -1.714145    0.355336   -0.300792
      4          6           0       -1.318405   -1.595739    0.367527
      5          1           0       -0.610296   -2.343387    0.714663
      6          6           0        0.652529    1.417621   -0.391333
      7          1           0       -0.167013    2.077201   -0.667115
      8          1           0        1.651685    1.843434   -0.446201
      9          1           0       -2.357016   -1.912823    0.323634
     10          6           0        1.564891   -0.760107    0.412569
     11          1           0        2.525217   -0.239921    0.353222
     12          1           0        1.435446   -1.111717    1.444009
     13          1           0        1.604877   -1.652575   -0.223427
 ---------------------------------------------------------------------
                    Distance matrix (angstroms):
                    1          2          3          4          5
     1  C    0.000000
     2  C    1.483095   0.000000
     3  H    2.183859   1.088381   0.000000
     4  C    2.505119   1.338587   2.099989   0.000000
     5  H    2.798995   2.134047   3.087512   1.086691   0.000000
     6  C    1.342711   2.427984   2.595726   3.679781   4.118632
     7  H    2.126642   2.647539   2.343636   3.985810   4.652678
     8  H    2.129180   3.441510   3.682987   4.616438   4.898329
     9  H    3.490470   2.117621   2.438798   1.086822   1.841011
    10  C    1.505832   2.581865   3.536265   3.002283   2.707300
    11  H    2.151502   3.497682   4.330618   4.075767   3.792974
    12  H    2.160974   2.885336   3.887994   2.996128   2.496801
    13  H    2.159644   2.877647   3.879896   2.982957   2.502843
                    6          7          8          9         10
     6  C    0.000000
     7  H    1.087543   0.000000
     8  H    1.087493   1.846919   0.000000
     9  H    4.545371   4.658110   5.547233   0.000000
    10  C    2.494226   3.495072   2.742889   4.088768   0.000000
    11  H    2.609362   3.695706   2.396352   5.160977   1.093774
    12  H    3.221644   4.146555   3.514622   4.034821   1.097385
    13  H    3.218891   4.153033   3.503412   4.007942   1.096626
                   11         12         13
    11  H    0.000000
    12  H    1.771283   0.000000
    13  H    1.781893   1.761129   0.000000
 Stoichiometry    C5H8
 Framework group  C1[X(C5H8)]
 Deg. of freedom    33
 Full point group                 C1      NOp   1
 Largest Abelian subgroup         C1      NOp   1
 Largest concise Abelian subgroup C1      NOp   1
                         Standard orientation:                         
 ---------------------------------------------------------------------
 Center     Atomic      Atomic             Coordinates (Angstroms)
 Number     Number       Type             X           Y           Z
 ---------------------------------------------------------------------
      1          6           0        0.518217   -0.093866   -0.003950
      2          6           0       -0.843377   -0.681772   -0.003691
      3          1           0       -0.882370   -1.769454   -0.002909
      4          6           0       -1.984391    0.018137    0.001792
      5          1           0       -2.011340    1.104162   -0.025061
      6          6           0        1.572331   -0.925534    0.002695
      7          1           0        1.449236   -2.005792   -0.022587
      8          1           0        2.595789   -0.558728    0.027740
      9          1           0       -2.950854   -0.478011    0.032913
     10          6           0        0.679248    1.403321    0.001740
     11          1           0        1.737815    1.678572   -0.001834
     12          1           0        0.210206    1.857214   -0.880435
     13          1           0        0.199352    1.850325    0.880647
 ---------------------------------------------------------------------
 Rotational constants (GHZ):           8.4406842           4.1611110           2.8361115
 Standard basis: 6-31G(d) (6D, 7F)
 There are    91 symmetry adapted cartesian basis functions of A   symmetry.
 There are    91 symmetry adapted basis functions of A   symmetry.
    91 basis functions,   172 primitive gaussians,    91 cartesian basis functions
    19 alpha electrons       19 beta electrons
       nuclear repulsion energy       159.9106774357 Hartrees.
 NAtoms=   13 NActive=   13 NUniq=   13 SFac= 1.00D+00 NAtFMM=   60 NAOKFM=F Big=F
 Integral buffers will be    131072 words long.
 Raffenetti 2 integral format.
 Two-electron integral symmetry is turned on.
 One-electron integrals computed using PRISM.
 NBasis=    91 RedAO= T EigKep=  2.89D-03  NBF=    91
 NBsUse=    91 1.00D-06 EigRej= -1.00D+00 NBFU=    91
 Initial guess from the checkpoint file:  "DATS_diene.chk"
 B after Tr=    -0.000000   -0.000000    0.000000
         Rot=    0.999944    0.000862    0.001112   -0.010469 Ang=   1.21 deg.
 ExpMin= 1.61D-01 ExpMax= 3.05D+03 ExpMxC= 4.57D+02 IAcc=3 IRadAn=         5 AccDes= 0.00D+00
 Harris functional with IExCor=  402 and IRadAn=       5 diagonalized for initial guess.
 HarFok:  IExCor=  402 AccDes= 0.00D+00 IRadAn=         5 IDoV= 1 UseB2=F ITyADJ=14
 ICtDFT=  3500011 ScaDFX=  1.000000  1.000000  1.000000  1.000000
 FoFCou: FMM=F IPFlag=           0 FMFlag=      100000 FMFlg1=           0
         NFxFlg=           0 DoJE=T BraDBF=F KetDBF=T FulRan=T
         wScrn=  0.000000 ICntrl=       500 IOpCl=  0 I1Cent=   200000004 NGrid=           0
         NMat0=    1 NMatS0=      1 NMatT0=    0 NMatD0=    1 NMtDS0=    0 NMtDT0=    0
 Petite list used in FoFCou.
 Requested convergence on RMS density matrix=1.00D-08 within 128 cycles.
 Requested convergence on MAX density matrix=1.00D-06.
 Requested convergence on             energy=1.00D-06.
 No special actions if energy rises.
 Integral accuracy reduced to 1.0D-05 until final iterations.
 Initial convergence to 1.0D-05 achieved.  Increase integral accuracy.
 SCF Done:  E(RB3LYP) =  -195.310088007     A.U. after   12 cycles
            NFock= 12  Conv=0.43D-08     -V/T= 2.0103
 Calling FoFJK, ICntrl=      2127 FMM=F ISym2X=0 I1Cent= 0 IOpClX= 0 NMat=1 NMatS=1 NMatT=0.
 ***** Axes restored to original set *****
 -------------------------------------------------------------------
 Center     Atomic                   Forces (Hartrees/Bohr)
 Number     Number              X              Y              Z
 -------------------------------------------------------------------
      1        6          -0.011758301    0.000913714   -0.001120181
      2        6           0.011081348   -0.000697899    0.002168862
      3        1          -0.000306959    0.000007829   -0.000992434
      4        6          -0.003151755   -0.001735062    0.000374308
      5        1           0.000808054    0.000490675   -0.001163803
      6        6           0.003017437    0.002166327    0.000201784
      7        1           0.000051438   -0.000802589   -0.000739069
      8        1          -0.000287505   -0.000163239    0.000704540
      9        1           0.000002070    0.000708472    0.000815410
     10        6          -0.000305759    0.000169759    0.000633222
     11        1           0.000388715   -0.001006404   -0.000593701
     12        1          -0.000369514    0.000066378    0.000133689
     13        1           0.000830729   -0.000117960   -0.000422628
 -------------------------------------------------------------------
 Cartesian Forces:  Max     0.011758301 RMS     0.002794828

 GradGradGradGradGradGradGradGradGradGradGradGradGradGradGradGradGradGrad
 Berny optimization.
 Using GEDIIS/GDIIS optimizer.
 FormGI is forming the generalized inverse of G from B-inverse, IUseBI=4.
 Internal  Forces:  Max     0.007491030 RMS     0.001574847
 Search for a local minimum.
 Step number   5 out of a maximum of   58
 All quantities printed in internal units (Hartrees-Bohrs-Radians)
 Mixed Optimization -- RFO/linear search
 Update second derivatives using D2CorX and points    4    5
 DE= -2.03D-03 DEPred=-1.72D-03 R= 1.18D+00
 TightC=F SS=  1.41D+00  RLast= 2.75D-01 DXNew= 2.4000D+00 8.2539D-01
 Trust test= 1.18D+00 RLast= 2.75D-01 DXMaxT set to 1.43D+00
 ITU=  1  1  1  1  0
 Use linear search instead of GDIIS.
     Eigenvalues ---    0.00520   0.00619   0.01379   0.02131   0.02868
     Eigenvalues ---    0.02887   0.02892   0.03361   0.07093   0.07217
     Eigenvalues ---    0.15736   0.15993   0.16000   0.16000   0.16000
     Eigenvalues ---    0.16011   0.16092   0.16462   0.20833   0.24276
     Eigenvalues ---    0.25281   0.31236   0.31632   0.33854   0.33918
     Eigenvalues ---    0.34379   0.34706   0.35158   0.35190   0.35242
     Eigenvalues ---    0.35296   0.57079   0.57842
 RFO step:  Lambda=-4.52328899D-04 EMin= 5.20193278D-03
 Quartic linear search produced a step of  0.33877.
 Iteration  1 RMS(Cart)=  0.02286489 RMS(Int)=  0.00028076
[...]
 ! R5    R(2,4)                  1.3403         -DE/DX =    0.0                 !
 ! R6    R(4,5)                  1.0864         -DE/DX =    0.0                 !
 ! R7    R(4,9)                  1.086          -DE/DX =    0.0                 !
 ! R8    R(6,7)                  1.0873         -DE/DX =    0.0                 !
 ! R9    R(6,8)                  1.0864         -DE/DX =    0.0                 !
 ! R10   R(10,11)                1.0937         -DE/DX =    0.0                 !
 ! R11   R(10,12)                1.0974         -DE/DX =    0.0                 !
 ! R12   R(10,13)                1.0974         -DE/DX =    0.0                 !
 ! A1    A(2,1,6)              119.7799         -DE/DX =    0.0                 !
 ! A2    A(2,1,10)             118.6902         -DE/DX =    0.0                 !
 ! A3    A(6,1,10)             121.53           -DE/DX =    0.0                 !
 ! A4    A(1,2,3)              115.2042         -DE/DX =    0.0                 !
 ! A5    A(1,2,4)              126.0922         -DE/DX =    0.0                 !
 ! A6    A(3,2,4)              118.7036         -DE/DX =    0.0                 !
 ! A7    A(2,4,5)              122.4771         -DE/DX =    0.0                 !
 ! A8    A(2,4,9)              121.1887         -DE/DX =   -0.0001              !
 ! A9    A(5,4,9)              116.3342         -DE/DX =    0.0                 !
 ! A10   A(1,6,7)              121.5537         -DE/DX =    0.0                 !
 ! A11   A(1,6,8)              121.8649         -DE/DX =    0.0                 !
 ! A12   A(7,6,8)              116.5813         -DE/DX =    0.0                 !
 ! A13   A(1,10,11)            111.2132         -DE/DX =    0.0                 !
 ! A14   A(1,10,12)            111.1715         -DE/DX =    0.0                 !
 ! A15   A(1,10,13)            111.1715         -DE/DX =    0.0                 !
 ! A16   A(11,10,12)           108.1124         -DE/DX =    0.0                 !
 ! A17   A(11,10,13)           108.1124         -DE/DX =    0.0                 !
 ! A18   A(12,10,13)           106.8831         -DE/DX =    0.0                 !
 ! D1    D(6,1,2,3)              0.0            -DE/DX =    0.0                 !
 ! D2    D(6,1,2,4)           -180.0            -DE/DX =    0.0                 !
 ! D3    D(10,1,2,3)          -180.0            -DE/DX =    0.0                 !
 ! D4    D(10,1,2,4)             0.0            -DE/DX =    0.0                 !
 ! D5    D(2,1,6,7)              0.0            -DE/DX =    0.0                 !
 ! D6    D(2,1,6,8)            180.0            -DE/DX =    0.0                 !
 ! D7    D(10,1,6,7)           180.0            -DE/DX =    0.0                 !
 ! D8    D(10,1,6,8)             0.0            -DE/DX =    0.0                 !
 ! D9    D(2,1,10,11)         -179.9999         -DE/DX =    0.0                 !
 ! D10   D(2,1,10,12)          -59.4729         -DE/DX =    0.0                 !
 ! D11   D(2,1,10,13)           59.4731         -DE/DX =    0.0                 !
 ! D12   D(6,1,10,11)            0.0001         -DE/DX =    0.0                 !
 ! D13   D(6,1,10,12)          120.5271         -DE/DX =    0.0                 !
 ! D14   D(6,1,10,13)         -120.5269         -DE/DX =    0.0                 !
 ! D15   D(1,2,4,5)              0.0            -DE/DX =    0.0                 !
 ! D16   D(1,2,4,9)            180.0            -DE/DX =    0.0                 !
 ! D17   D(3,2,4,5)            180.0            -DE/DX =    0.0                 !
 ! D18   D(3,2,4,9)              0.0            -DE/DX =    0.0                 !
 --------------------------------------------------------------------------------
 GradGradGradGradGradGradGradGradGradGradGradGradGradGradGradGradGradGrad


 ----------------------------------------------------------------------

 Electric dipole moment (input orientation):
 (Debye = 10**-18 statcoulomb cm , SI units = C m)
                  (au)            (Debye)         (10**-30 SI)
   Tot        0.920649D-01      0.234006D+00      0.780558D+00
   x          0.702522D-01      0.178563D+00      0.595623D+00
   y         -0.541424D-01     -0.137616D+00     -0.459038D+00
   z          0.246812D-01      0.627333D-01      0.209256D+00

 Dipole polarizability, Alpha (input orientation).
 (esu units = cm**3 , SI units = C**2 m**2 J**-1)
 Alpha(0;0):
               (au)            (10**-24 esu)      (10**-40 SI)
   iso        0.540604D+02      0.801093D+01      0.891336D+01
   aniso      0.518505D+02      0.768346D+01      0.854900D+01
   xx         0.576797D+02      0.854724D+01      0.951009D+01
   yx         0.134005D+02      0.198576D+01      0.220945D+01
   yy         0.745635D+02      0.110492D+02      0.122939D+02
   zx        -0.796605D+00     -0.118045D+00     -0.131342D+00
   zy        -0.144316D+02     -0.213854D+01     -0.237945D+01
   zz         0.299381D+02      0.443638D+01      0.493613D+01

 ----------------------------------------------------------------------

 Dipole orientation:
     6          0.55142629          0.49512408          0.43992479
     6         -1.22656276         -1.11863181         -0.95104617
     1         -1.08859489         -1.00918701         -3.00352916
     6         -2.94990505         -2.66727847          0.07178414
     1         -3.18498032         -2.86733709          2.10152108
     6          2.18655609          1.96185462         -0.83550404
     1          2.23171064          1.98752827         -2.88951852
     1          3.52924925          3.18013575          0.12782060
     1         -4.19394822         -3.79887181         -1.10426733
     6          0.49112901          0.45916368          3.29171801
     1          1.90648888          1.73851810          4.08633906
     1         -1.36899968          1.03062023          4.00878464
     1          0.85992467         -1.44523690          4.02520260

 Electric dipole moment (dipole orientation):
 (Debye = 10**-18 statcoulomb cm , SI units = C m)
                  (au)            (Debye)         (10**-30 SI)
   Tot        0.920649D-01      0.234006D+00      0.780558D+00
   x          0.000000D+00      0.000000D+00      0.000000D+00
   y          0.000000D+00      0.000000D+00      0.000000D+00
   z          0.920649D-01      0.234006D+00      0.780558D+00

 Dipole polarizability, Alpha (dipole orientation).
 (esu units = cm**3 , SI units = C**2 m**2 J**-1)
 Alpha(0;0):
               (au)            (10**-24 esu)      (10**-40 SI)
   iso        0.540604D+02      0.801093D+01      0.891336D+01
   aniso      0.518505D+02      0.768346D+01      0.854900D+01
   xx         0.572218D+02      0.847940D+01      0.943460D+01
   yx         0.287106D+02      0.425448D+01      0.473375D+01
   yy         0.512369D+02      0.759252D+01      0.844782D+01
   zx        -0.597917D+01     -0.886021D+00     -0.985831D+00
   zy        -0.520260D+01     -0.770945D+00     -0.857793D+00
   zz         0.537226D+02      0.796087D+01      0.885766D+01

 ----------------------------------------------------------------------
 Unable to Open any file for archive entry.
 1\1\GINC-NODE11\Freq\RB3LYP\6-31G(d)\C5H8\RPATON\14-Mar-2023\0\\#N Geo
 m=AllCheck Guess=TCheck SCRF=Check GenChk RB3LYP/6-31G(d) Freq\\Title 
 Card Required\\0,1\C,0.4281748724,0.1569079357,-0.0061724686\C,-0.9445
 455791,-0.3642349394,0.0122455208\H,-1.7133600731,0.3424624133,-0.3005
 804318\C,-1.3147383472,-1.6012706729,0.3712914876\H,-0.5998688218,-2.3
 539474195,0.6919033051\C,0.655782416,1.4245082741,-0.3909254438\H,-0.1
 559002574,2.082061743,-0.6925604343\H,1.6571823728,1.8450198887,-0.417
 3114335\H,-2.3575712782,-1.9037449283,0.3546417266\C,1.5557413984,-0.7
 557118607,0.4115522009\H,2.5212521135,-0.245586716,0.3508965417\H,1.41
 99610217,-1.1072810625,1.4422396895\H,1.6008357519,-1.6478251454,-0.22
 59691302\\Version=AS64L-G16RevC.01\State=1-A\HF=-195.3104478\RMSD=1.78
 4e-09\RMSF=3.648e-05\ZeroPoint=0.1140946\Thermal=0.1199298\ETot=-195.1
 905181\HTot=-195.1895739\GTot=-195.2248302\Dipole=0.0702522,-0.0541424
 ,0.0246812\DipoleDeriv=0.1773314,-0.0162575,0.0237193,-0.0714776,0.117
 6227,-0.0431814,0.0417611,-0.0370668,0.0245217,0.1545614,0.1296849,-0.
 0151374,0.0393537,0.1232085,-0.0646288,0.013843,-0.0550908,-0.0705031,
 -0.0697421,0.0403161,-0.0320753,0.0878211,-0.0332955,0.0542296,-0.0475
 47,0.0491061,0.0837039,0.026916,-0.1098916,0.0724057,-0.0918562,-0.129
 4127,-0.0684373,0.0669479,-0.0697712,-0.280812,-0.0202163,0.0807756,-0
 .0429709,0.0574091,0.0052934,0.0478987,-0.0354819,0.0502111,0.1142356,
 -0.0013576,-0.0838299,0.0629447,-0.0023661,-0.1271938,-0.0654659,0.036
 5847,-0.0746216,-0.3006293,-0.0596712,0.0870448,-0.0507599,0.0520939,0
 .0046601,0.0517201,-0.0394703,0.0556839,0.1247267,-0.0947957,-0.070886
 3,-0.0013653,-0.0283305,0.0339732,0.0269895,-0.0150403,0.0224266,0.118
 188,-0.0955625,-0.0606055,-0.0052115,-0.0305478,0.0381244,0.0266855,-0
 .0151111,0.0231775,0.1220361,0.0017215,0.0155976,-0.0179383,0.0221448,
 0.0322614,0.0305473,-0.0200594,0.029994,0.1076747,-0.1063008,-0.037062
 2,-0.0074047,-0.1020739,0.014268,0.0078751,0.0136178,0.0148892,0.06934
 52,0.0398042,0.0132592,0.0406027,0.0261879,0.0146047,0.0711808,0.00599
 98,0.0738184,-0.1069653,0.0473118,0.0118548,-0.0268092,0.0416415,-0.09
 41144,-0.0754133,-0.0060443,-0.0827564,-0.0055223\Polar=57.6796503,13.
 400543,74.563509,-0.7966055,-14.4315783,29.9381498\Quadrupole=1.217772
 8,0.7052911,-1.9230639,-0.0367967,0.3951983,-0.9676229\PG=C01 [X(C5H8)
 ]\NImag=0\\0.55030522,0.04834162,0.75651268,0.02557848,-0.18320794,0.2
 3518939,-0.22821678,-0.03434483,-0.00624490,0.59925504,-0.02688386,-0.
 09910708,0.00664770,0.04046539,0.78508622,-0.00867386,0.00584132,-0.07
 228978,0.03782304,-0.20580961,0.20507223,-0.02016054,0.02071961,-0.009
 20243,-0.19349116,0.12333036,-0.05659507,0.20554577,-0.00836588,0.0071
 4777,-0.00233918,0.12300199,-0.16771887,0.05448830,-0.13088444,0.18063
 563,0.00020282,0.00084243,0.00249447,-0.05650772,0.05453790,-0.0647414
 4,0.06186582,-0.06396859,0.05461523,-0.00835548,-0.03684853,0.01035990
 ,-0.14631090,-0.10833028,0.02436067,0.00906306,0.02268954,-0.00691092,
 0.66126528,-0.02368334,-0.02075110,0.00599305,-0.09609383,-0.47250381,
 0.12623757,-0.00769712,-0.01843124,0.00678585,0.07021448,0.76630203,0.
 00610394,0.00455590,0.00499826,0.02040219,0.12486420,-0.08722370,0.002
 90673,0.01011229,0.00224776,0.03833154,-0.20634411,0.17386274,-0.00026
 537,0.00015154,0.00071829,0.01093262,-0.00553260,0.00250090,0.00055468
 ,-0.00249517,-0.00039332,-0.18509405,0.12922611,-0.05818478,0.19018014
 ,0.00203756,0.00029944,-0.00222598,0.02252466,-0.01663343,0.00925035,-
 0.00259286,-0.00295116,0.00439995,0.12539021,-0.18814916,0.06344760,-0
 .13966475,0.19837263,0.00010876,-0.00244121,-0.00649718,-0.00655177,0.
 00619892,0.00168351,-0.00037150,0.00442306,0.01010387,-0.05692650,0.06
 384097,-0.06056841,0.06334480,-0.07199625,0.05247375,-0.12227433,-0.06
 713914,0.01415002,-0.01031464,-0.04100725,0.01134979,0.00078092,-0.001
 59059,0.00076204,-0.00623823,0.00122476,-0.00128671,0.00005266,-0.0002
 0630,0.00005876,0.65910120,-0.05827278,-0.47009870,0.12835232,-0.02353
 209,-0.02768587,0.00864319,0.00176840,0.00082958,-0.00055565,0.0023380
 7,0.00829043,-0.00179734,0.00016525,0.00001290,0.00005569,0.05043375,0
 .76270449,0.01127612,0.12739681,-0.09312999,0.00570765,0.00673825,0.00
 548924,-0.00032331,-0.00092324,-0.00122499,-0.00164974,-0.00191875,0.0
 0237907,-0.00006101,0.00001344,0.00011202,0.04442502,-0.20729181,0.176
 29462,0.00604420,-0.00391134,0.00158529,0.00041530,-0.00191511,0.00148
 141,0.00029409,0.00005416,-0.00002037,0.00036561,0.00020854,-0.0000514
 8,-0.00000358,-0.00008773,0.00001556,-0.21950318,0.12665422,-0.0614159
 5,0.22641109,0.02500833,-0.01467204,0.00847928,0.00280237,0.00011361,-
 0.00214055,-0.00137425,0.00002627,-0.00005668,-0.00051046,0.00027915,-
 0.00007428,0.00006444,0.00023059,-0.00003123,0.12207731,-0.15520960,0.
 05297492,-0.13659018,0.16322167,-0.00776662,0.00530697,0.00053760,-0.0
 0004526,-0.00265244,-0.00659796,0.00044196,0.00009994,0.00033337,0.000
 18044,0.00000343,0.00024049,-0.00003360,-0.00004818,0.00012358,-0.0599
 4828,0.05349064,-0.05664925,0.06652901,-0.06051849,0.04921885,-0.00304
 313,0.00028513,-0.00100275,0.00107260,-0.00139989,-0.00072697,0.000517
 54,0.00019063,0.00000789,-0.00007154,0.00004895,0.00000292,0.00001859,
 -0.00014766,0.00000517,-0.30210580,-0.10104113,0.00318751,-0.01534344,
 -0.00936028,0.00113756,0.31717316,-0.02926391,-0.00723987,0.00085223,0
 .00125629,-0.00385479,0.00521036,-0.00025268,0.00015906,-0.00011641,-0
 .00180278,0.00020557,-0.00034146,0.00005847,0.00005207,0.00012089,-0.0
 9609075,-0.09573678,0.00987944,0.01667811,0.00915035,-0.00051004,0.109
 92196,0.09746546,0.00855219,0.00408364,0.00490294,-0.00158286,0.004918
 88,0.01007796,0.00015075,-0.00006804,-0.00007662,0.00060143,-0.0001389
 7,-0.00013060,-0.00006126,0.00009795,0.00036810,0.00159161,0.00933532,
 -0.03550850,-0.00728359,-0.00335715,0.00222377,-0.00323568,-0.01240238
 ,0.02556815,0.00185218,-0.00076463,-0.00090922,-0.00450514,0.00021715,
 -0.00100312,0.00119397,0.00001349,0.00093922,-0.32454234,-0.07508804,-
 0.00779435,-0.01422877,-0.00646040,0.00028932,-0.00047965,-0.00016981,
 0.00001864,0.00004016,-0.00004115,-0.00003704,-0.00000397,-0.00009290,
 0.00019870,0.34045198,0.00109861,-0.00317566,0.00515023,-0.03140968,-0
 .00490620,-0.00056119,0.00025367,0.00033403,-0.00247451,-0.07084672,-0
 .07521041,0.00613422,0.01960650,0.00807249,0.00023753,-0.00154085,0.00
 013109,-0.00025822,0.00005380,0.00003639,0.00015585,-0.00007540,-0.000
 60381,-0.00031218,0.08262273,0.07508402,-0.00150637,0.00494915,0.01064
 632,0.00921089,0.00290290,0.00407948,0.00086314,-0.00250570,-0.0065166
 4,-0.00918678,0.00566769,-0.03495675,-0.00811187,-0.00261566,0.0021058
 1,0.00046028,-0.00010771,-0.00006261,-0.00006792,0.00014592,0.00044662
 ,0.00019307,-0.00031496,-0.00142357,0.00819376,-0.00801062,0.02568215,
 -0.15932442,0.05723218,-0.02738478,-0.02838602,0.01637064,-0.00874858,
 -0.00340188,-0.00228664,0.00007893,0.00014315,0.00167851,-0.00036662,-
 0.00087263,0.00001958,-0.00022251,0.00539274,0.00238328,-0.00096190,0.
 00037598,-0.00333723,-0.00024731,0.00064322,-0.00180634,0.00146500,0.0
 0001872,0.00061286,-0.00015658,0.54626025,0.04981220,-0.12945902,0.022
 09499,-0.00427685,0.01097911,-0.00295780,-0.00434817,-0.00043349,0.000
 51920,-0.00222590,-0.00078044,-0.00047139,-0.00078476,0.00004854,0.000
 26001,0.02619411,-0.02344321,0.01276007,-0.00132838,-0.00200297,0.0045
 7445,0.00158491,0.00041917,-0.00238002,-0.00005790,-0.00022411,-0.0000
 4574,0.05109648,0.54237418,-0.02496142,0.02288533,-0.08799897,-0.00207
 701,-0.00069735,0.00329793,0.00074384,0.00074727,0.00249044,0.00089968
 ,-0.00003725,-0.00136991,0.00003546,0.00034195,0.00100669,-0.00865825,
 0.01015989,0.00294643,-0.00090964,0.00435748,0.01109625,0.00037813,-0.
 00274872,-0.00655370,0.00006049,0.00002505,-0.00035074,-0.01622665,0.0
 0589777,0.53961591,-0.02228105,-0.01246585,0.00175415,-0.00186478,0.00
 378662,-0.00155726,-0.00128269,-0.00044812,-0.00003878,0.00036451,0.00
 063705,-0.00018637,0.00020099,0.00000202,0.00007557,0.00123422,-0.0018
 4356,0.00079461,0.00056531,-0.00004296,0.00009299,0.00074212,0.0010686
 6,-0.00030575,-0.00001371,-0.00012251,0.00002403,-0.25570909,-0.111392
 46,0.01373501,0.27820974,0.01955261,0.01025639,-0.00160751,0.00262297,
 -0.00304300,0.00166021,0.00107946,0.00056658,0.00006395,-0.00012694,-0
 .00066753,0.00026247,-0.00023093,0.00045646,-0.00033512,0.00154719,0.0
 0072042,-0.00025960,-0.00018742,0.00026566,-0.00016532,-0.00016037,-0.
 00023398,0.00018912,-0.00015309,0.00026241,-0.00005911,-0.11465898,-0.
 11067853,0.00742904,0.12118753,0.11905204,-0.00862041,-0.00507528,-0.0
 0054059,-0.00118502,0.00178670,0.00050413,-0.00053230,-0.00010366,0.00
 037084,0.00005843,0.00034499,0.00008425,0.00015183,-0.00030868,-0.0003
 8761,-0.00029830,-0.00062996,-0.00043604,0.00014100,-0.00014896,-0.000
 11583,0.00008850,0.00032125,0.00030998,0.00003333,-0.00005548,0.000152
 22,0.01479613,0.00778364,-0.05029686,-0.01420296,-0.01022536,0.0487188
 4,0.00519653,0.00777755,-0.02536344,0.00061934,0.00048160,0.00018702,0
 .00016078,0.00020664,0.00042204,-0.00027142,-0.00039642,0.00006886,-0.
 00067707,-0.00052089,-0.00044929,-0.00278599,0.00065919,-0.00039560,0.
 00000999,0.00109972,0.00120905,0.00024026,0.00005797,-0.00039670,0.000
 07709,-0.00006835,0.00012122,-0.05464921,-0.01118273,0.03160138,-0.002
 64619,-0.00755862,0.02789263,0.05541187,-0.00163256,-0.01020970,0.0211
 4201,-0.00130964,-0.00028836,-0.00028349,-0.00001578,-0.00019421,-0.00
 022483,-0.00000027,0.00079591,-0.00046486,-0.00027869,-0.00007384,-0.0
 0014821,0.00290418,-0.00042003,0.00057518,0.00040762,-0.00131355,-0.00
 162790,-0.00004302,0.00042203,0.00107281,0.00004849,0.00001936,0.00004
 925,-0.01263958,-0.07091505,0.07684674,-0.00128936,-0.00519655,0.01503
 580,0.01004925,0.07778248,-0.00030565,0.00429494,-0.00614579,0.0010155
 5,0.00086723,0.00033466,-0.00011544,-0.00004530,0.00009539,-0.00024465
 ,0.00030884,0.00011186,0.00004520,-0.00067983,-0.00015317,-0.00171595,
 -0.00042172,0.00002710,0.00000577,0.00034861,0.00032348,0.00000961,-0.
 00017328,-0.00023311,0.00019879,-0.00027886,0.00020952,0.03269738,0.07
 582141,-0.27732951,0.00054117,-0.00046082,0.00010132,-0.03535953,-0.08
 555439,0.30163788,0.00052298,0.02096669,0.01596138,0.00079451,0.000417
 24,-0.00039796,0.00022545,-0.00008562,-0.00040763,-0.00031763,-0.00027
 965,0.00005414,-0.00079821,-0.00029345,0.00062362,-0.00285992,0.000457
 22,-0.00060206,0.00032847,0.00020435,-0.00151292,0.00016038,0.00026790
 ,0.00030614,0.00013946,-0.00018467,-0.00003687,-0.05049082,0.00690944,
 0.00537899,0.00248062,-0.02291340,-0.01832287,-0.00068596,0.00379936,0
 .00322775,0.05050069,0.00225140,-0.01950310,-0.00933121,-0.00170676,-0
 .00043753,0.00042135,0.00001381,0.00003006,0.00024739,0.00005958,0.000
 62060,0.00011677,-0.00028542,0.00026248,-0.00018507,0.00319358,-0.0000
 9473,0.00031352,-0.00003629,-0.00012555,0.00189109,0.00019617,-0.00020
 447,-0.00103898,-0.00007395,0.00018040,-0.00005541,0.00533525,-0.21588
 419,-0.12520720,0.00092296,-0.01176036,-0.00872499,-0.00060492,0.00959
 151,0.00597316,-0.00926541,0.23732487,0.00001201,0.01056794,0.00783332
 ,0.00003522,-0.00030329,0.00031373,0.00016780,0.00008285,-0.00019168,0
 .00012650,-0.00074332,0.00032494,0.00004933,0.00032336,-0.00037097,-0.
 00089003,0.00076713,-0.00023712,-0.00000907,0.00002113,-0.00118098,-0.
 00004497,0.00022308,0.00047518,-0.00018853,0.00024818,-0.00001182,0.00
 527750,-0.12385658,-0.13655397,-0.00072640,0.00350805,0.00153534,0.000
 46236,-0.02641810,-0.01897960,-0.00427173,0.13557959,0.14704364\\0.000
 06702,0.00000398,0.00004569,-0.00006647,-0.00006672,0.00006158,0.00000
 152,0.00001114,-0.00004377,-0.00007177,0.00006850,0.00002102,0.0000157
 4,-0.00001965,-0.00003097,0.00002727,-0.00001645,0.00002928,-0.0000002
 1,0.00000811,-0.00003345,-0.00001233,0.00002155,0.00000154,0.00002007,
 -0.00003529,0.00000138,-0.00003020,0.00007004,-0.00007265,0.00002101,-
 0.00002404,0.00000227,0.00000370,0.00000111,0.00000987,0.00002463,-0.0
 0002228,0.00000819\\\@
 The archive entry for this job was punched.


 OUR LITTLE SYSTEMS HAVE THEIR DAY,    
   THEY HAVE THEIR DAY AND CEASE TO BE.
   THEY ARE BUT BROKEN LIGHTS OF THEE, 
 AND THOU, OH LORD, ART MORE THAN THEY.
          -------------------          
 LET KNOWLEDGE GROW FROM MORE TO MORE, 
   BUT MORE OF REVERENCE IN US DWELL.  
   THAT MIND AND SOUL, ACCORDING WELL, 
 MAY MAKE ONE MUSIC AS BEFORE.....     
          -------------------          
                    LORD TENNYSON      
 Job cpu time:       0 days  0 hours  2 minutes 57.9 seconds.
 Elapsed time:       0 days  0 hours  0 minutes  6.3 seconds.
 File lengths (MBytes):  RWF=     17 Int=      0 D2E=      0 Chk=      3 Scr=      1
 Normal termination of Gaussian 16 at Tue Mar 14 12:46:45 2023.
