/usr/local/Chem-Apps/rung09_d01
 Entering Gaussian System, Link 0=/usr/local/Chem-Apps/Gaussian/g09_d01/g09
 Initial command:
 /usr/local/Chem-Apps/Gaussian/g09_d01/l1.exe "/scratch/rp10/LSF_62670/Gau-293691.inp" -scrdir="/scratch/rp10/LSF_62670/"
 Entering Link 1 = /usr/local/Chem-Apps/Gaussian/g09_d01/l1.exe PID=    293692.
  
 Copyright (c) 1988,1990,1992,1993,1995,1998,2003,2009,2013,
            Gaussian, Inc.  All Rights Reserved.
  
 This is part of the Gaussian(R) 09 program.  It is based on
 the Gaussian(R) 03 system (copyright 2003, Gaussian, Inc.),
 the Gaussian(R) 98 system (copyright 1998, Gaussian, Inc.),
 the Gaussian(R) 94 system (copyright 1995, Gaussian, Inc.),
 the Gaussian 92(TM) system (copyright 1992, Gaussian, Inc.),
 the Gaussian 90(TM) system (copyright 1990, Gaussian, Inc.),
 the Gaussian 88(TM) system (copyright 1988, Gaussian, Inc.),
 the Gaussian 86(TM) system (copyright 1986, Carnegie Mellon
 University), and the Gaussian 82(TM) system (copyright 1983,
 Carnegie Mellon University). Gaussian is a federally registered
 trademark of Gaussian, Inc.
  
 This software contains proprietary and confidential information,
 including trade secrets, belonging to Gaussian, Inc.
  
 This software is provided under written license and may be
 used, copied, transmitted, or stored only in accord with that
 written license.
  
 The following legend is applicable only to US Government
 contracts under FAR:
  
                    RESTRICTED RIGHTS LEGEND
  
 Use, reproduction and disclosure by the US Government is
 subject to restrictions as set forth in subparagraphs (a)
 and (c) of the Commercial Computer Software - Restricted
 Rights clause in FAR 52.227-19.
  
 Gaussian, Inc.
 340 Quinnipiac St., Bldg. 40, Wallingford CT 06492
  
  
 ---------------------------------------------------------------
 Warning -- This program may not be used in any manner that
 competes with the business of Gaussian, Inc. or will provide
 assistance to any competitor of Gaussian, Inc.  The licensee
 of this program is prohibited from giving any competitor of
 Gaussian, Inc. access to this program.  By using this program,
 the user acknowledges that Gaussian, Inc. is engaged in the
 business of creating and licensing software in the field of
 computational chemistry and represents and warrants to the
 licensee that it is not a competitor of Gaussian, Inc. and that
 it will not use this program in any manner prohibited above.
 ---------------------------------------------------------------
  

 Cite this work as:
 Gaussian 09, Revision D.01,
 M. J. Frisch, G. W. Trucks, H. B. Schlegel, G. E. Scuseria, 
 M. A. Robb, J. R. Cheeseman, G. Scalmani, V. Barone, B. Mennucci, 
 G. A. Petersson, H. Nakatsuji, M. Caricato, X. Li, H. P. Hratchian, 
 A. F. Izmaylov, J. Bloino, G. Zheng, J. L. Sonnenberg, M. Hada, 
 M. Ehara, K. Toyota, R. Fukuda, J. Hasegawa, M. Ishida, T. Nakajima, 
 Y. Honda, O. Kitao, H. Nakai, T. Vreven, J. A. Montgomery, Jr., 
 J. E. Peralta, F. Ogliaro, M. Bearpark, J. J. Heyd, E. Brothers, 
 K. N. Kudin, V. N. Staroverov, T. Keith, R. Kobayashi, J. Normand, 
 K. Raghavachari, A. Rendell, J. C. Burant, S. S. Iyengar, J. Tomasi, 
 M. Cossi, N. Rega, J. M. Millam, M. Klene, J. E. Knox, J. B. Cross, 
 V. Bakken, C. Adamo, J. Jaramillo, R. Gomperts, R. E. Stratmann, 
 O. Yazyev, A. J. Austin, R. Cammi, C. Pomelli, J. W. Ochterski, 
 R. L. Martin, K. Morokuma, V. G. Zakrzewski, G. A. Voth, 
 P. Salvador, J. J. Dannenberg, S. Dapprich, A. D. Daniels, 
 O. Farkas, J. B. Foresman, J. V. Ortiz, J. Cioslowski, 
 and D. J. Fox, Gaussian, Inc., Wallingford CT, 2013.
 
 ******************************************
 Gaussian 09:  ES64L-G09RevD.01 24-Apr-2013
                25-Jul-2015 
 ******************************************
 %chk=CH3F_F_rct.chk
 %mem=4GB
 %nprocshared=4
 Will use up to    4 processors via shared memory.
 Default route:  CacheSize=163840
 ------------------------
 # B3LYP/aug-cc-pvtz freq
 ------------------------
 1/4=163840,10=4,30=1,38=1/1,3;
 2/4=163840,12=2,17=6,18=5,40=1/2;
 3/4=163840,5=16,6=1,7=10,11=2,16=1,25=1,30=1,71=2,74=-5,140=1/1,2,3;
 4/4=163840/1;
 5/4=163840,5=2,38=5,98=1/2;
 8/4=163840,6=4,10=90,11=11/1;
 11/4=163840,6=1,8=1,9=11,15=111,16=1/1,2,10;
 10/4=163840,6=1/2;
 6/4=163840,7=2,8=2,9=2,10=2,18=1,28=1/1;
 7/4=163840,8=1,10=1,25=1/1,2,3,16;
 1/4=163840,10=4,30=1/3;
 99/4=163840/99;
 ----------
 CH3F_F_SN2
 ----------
 Symbolic Z-matrix:
 Charge = -1 Multiplicity = 1
 C                    -0.41862   0.00037  -0.00004 
 H                    -0.07621  -0.46527  -0.91522 
 H                    -0.07613  -0.55911   0.86094 
 H                    -0.07691   1.02603   0.05413 
 F                    -1.86421  -0.00028   0.00003 
 F                     2.16876  -0.00015   0.00002 
 

 GradGradGradGradGradGradGradGradGradGradGradGradGradGradGradGradGradGrad
 Berny optimization.
 Initialization pass.
 Trust Radius=3.00D-01 FncErr=1.00D-07 GrdErr=1.00D-07
 Number of steps in this run=      2 maximum allowed number of steps=      2.
 GradGradGradGradGradGradGradGradGradGradGradGradGradGradGradGradGradGrad

                          Input orientation:                          
 ---------------------------------------------------------------------
 Center     Atomic      Atomic             Coordinates (Angstroms)
 Number     Number       Type             X           Y           Z
 ---------------------------------------------------------------------
      1          6           0       -0.418618    0.000373   -0.000040
      2          1           0       -0.076209   -0.465265   -0.915220
      3          1           0       -0.076126   -0.559107    0.860937
      4          1           0       -0.076909    1.026033    0.054127
      5          9           0       -1.864212   -0.000283    0.000028
      6          9           0        2.168763   -0.000150    0.000016
 ---------------------------------------------------------------------
                    Distance matrix (angstroms):
                    1          2          3          4          5
     1  C    0.000000
     2  H    1.082413   0.000000
     3  H    1.082405   1.778634   0.000000
     4  H    1.082441   1.778652   1.778654   0.000000
     5  F    1.445594   2.061757   2.061723   2.061723   0.000000
     6  F    2.587381   2.468580   2.468430   2.469620   4.032975
                    6
     6  F    0.000000
 This structure is nearly, but not quite of a higher symmetry.
 Consider Symm=Loose if the higher symmetry is desired.
 Stoichiometry    CH3F2(1-)
 Framework group  C1[X(CH3F2)]
 Deg. of freedom    12
 Full point group                 C1      NOp   1
 Largest Abelian subgroup         C1      NOp   1
 Largest concise Abelian subgroup C1      NOp   1
                         Standard orientation:                         
 ---------------------------------------------------------------------
 Center     Atomic      Atomic             Coordinates (Angstroms)
 Number     Number       Type             X           Y           Z
 ---------------------------------------------------------------------
      1          6           0        0.000034    0.001814   -0.418614
      2          1           0        0.916815   -0.461848   -0.077810
      3          1           0       -0.859009   -0.561801   -0.078050
      4          1           0       -0.057658    1.026099   -0.073378
      5          9           0       -0.000049    0.006132   -1.864202
      6          9           0        0.000010   -0.007613    2.168749
 ---------------------------------------------------------------------
 Rotational constants (GHZ):    158.5082799      3.1766088      3.1766078
 Standard basis: Aug-CC-pVTZ (5D, 7F)
 There are   240 symmetry adapted cartesian basis functions of A   symmetry.
 There are   207 symmetry adapted basis functions of A   symmetry.
   207 basis functions,   297 primitive gaussians,   240 cartesian basis functions
    14 alpha electrons       14 beta electrons
       nuclear repulsion energy        63.8493823068 Hartrees.
 NAtoms=    6 NActive=    6 NUniq=    6 SFac= 1.00D+00 NAtFMM=   60 NAOKFM=F Big=F
 Integral buffers will be    131072 words long.
 Raffenetti 2 integral format.
 Two-electron integral symmetry is turned on.
 One-electron integrals computed using PRISM.
 NBasis=   207 RedAO= T EigKep=  6.45D-05  NBF=   207
 NBsUse=   207 1.00D-06 EigRej= -1.00D+00 NBFU=   207
 ExpMin= 2.53D-02 ExpMax= 1.95D+04 ExpMxC= 6.65D+02 IAcc=3 IRadAn=         5 AccDes= 0.00D+00
 Harris functional with IExCor=  402 and IRadAn=       5 diagonalized for initial guess.
 HarFok:  IExCor=  402 AccDes= 0.00D+00 IRadAn=         5 IDoV= 1 UseB2=F ITyADJ=14
 ICtDFT=  3500011 ScaDFX=  1.000000  1.000000  1.000000  1.000000
 FoFCou: FMM=F IPFlag=           0 FMFlag=      100000 FMFlg1=           0
         NFxFlg=           0 DoJE=T BraDBF=F KetDBF=T FulRan=T
         wScrn=  0.000000 ICntrl=     500 IOpCl=  0 I1Cent=   200000004 NGrid=           0
         NMat0=    1 NMatS0=      1 NMatT0=    0 NMatD0=    1 NMtDS0=    0 NMtDT0=    0
 Petite list used in FoFCou.
 Keep R1 ints in memory in canonical form, NReq=238931314.
 Requested convergence on RMS density matrix=1.00D-08 within 128 cycles.
 Requested convergence on MAX density matrix=1.00D-06.
 Requested convergence on             energy=1.00D-06.
 No special actions if energy rises.
 SCF Done:  E(RB3LYP) =  -239.720760328     A.U. after   12 cycles
            NFock= 12  Conv=0.50D-08     -V/T= 2.0055
 DoSCS=F DFT=T ScalE2(SS,OS)=  1.000000  1.000000
 Range of M.O.s used for correlation:     1   207
 NBasis=   207 NAE=    14 NBE=    14 NFC=     0 NFV=     0
 NROrb=    207 NOA=    14 NOB=    14 NVA=   193 NVB=   193

 **** Warning!!: The largest alpha MO coefficient is  0.37502604D+02

 Symmetrizing basis deriv contribution to polar:
 IMax=3 JMax=2 DiffMx= 0.00D+00
 G2DrvN: will do     7 centers at a time, making    1 passes.
 Calling FoFCou, ICntrl=  3107 FMM=F I1Cent=   0 AccDes= 0.00D+00.
 End of G2Drv F.D. properties file   721 does not exist.
 End of G2Drv F.D. properties file   722 does not exist.
 End of G2Drv F.D. properties file   788 does not exist.
          IDoAtm=111111
          Differentiating once with respect to electric field.
                with respect to dipole field.
          Differentiating once with respect to nuclear coordinates.
 Keep R1 ints in memory in canonical form, NReq=238739712.
          There are    21 degrees of freedom in the 1st order CPHF.  IDoFFX=6 NUNeed=     3.
     19 vectors produced by pass  0 Test12= 1.29D-14 4.76D-09 XBig12= 2.65D+01 2.49D+00.
 AX will form    19 AO Fock derivatives at one time.
     18 vectors produced by pass  1 Test12= 1.29D-14 4.76D-09 XBig12= 4.02D+00 5.96D-01.
     18 vectors produced by pass  2 Test12= 1.29D-14 4.76D-09 XBig12= 5.10D-01 2.05D-01.
     18 vectors produced by pass  3 Test12= 1.29D-14 4.76D-09 XBig12= 4.05D-03 1.06D-02.
     18 vectors produced by pass  4 Test12= 1.29D-14 4.76D-09 XBig12= 1.45D-05 7.81D-04.
     15 vectors produced by pass  5 Test12= 1.29D-14 4.76D-09 XBig12= 6.40D-08 3.89D-05.
      6 vectors produced by pass  6 Test12= 1.29D-14 4.76D-09 XBig12= 2.16D-10 3.20D-06.
      3 vectors produced by pass  7 Test12= 1.29D-14 4.76D-09 XBig12= 4.06D-13 1.43D-07.
      1 vectors produced by pass  8 Test12= 1.29D-14 4.76D-09 XBig12= 4.94D-15 1.55D-08.
 InvSVY:  IOpt=1 It=  1 EMax= 4.44D-15
 Solved reduced A of dimension   116 with    21 vectors.
 Isotropic polarizability for W=    0.000000       32.46 Bohr**3.
 End of Minotr F.D. properties file   721 does not exist.
 End of Minotr F.D. properties file   722 does not exist.
 End of Minotr F.D. properties file   788 does not exist.

 **********************************************************************

            Population analysis using the SCF density.

 **********************************************************************

 Orbital symmetries:
       Occupied  (A) (A) (A) (A) (A) (A) (A) (A) (A) (A) (A) (A)
                 (A) (A)
       Virtual   (A) (A) (A) (A) (A) (A) (A) (A) (A) (A) (A) (A)
                 (A) (A) (A) (A) (A) (A) (A) (A) (A) (A) (A) (A)
                 (A) (A) (A) (A) (A) (A) (A) (A) (A) (A) (A) (A)
                 (A) (A) (A) (A) (A) (A) (A) (A) (A) (A) (A) (A)
                 (A) (A) (A) (A) (A) (A) (A) (A) (A) (A) (A) (A)
                 (A) (A) (A) (A) (A) (A) (A) (A) (A) (A) (A) (A)
                 (A) (A) (A) (A) (A) (A) (A) (A) (A) (A) (A) (A)
                 (A) (A) (A) (A) (A) (A) (A) (A) (A) (A) (A) (A)
                 (A) (A) (A) (A) (A) (A) (A) (A) (A) (A) (A) (A)
                 (A) (A) (A) (A) (A) (A) (A) (A) (A) (A) (A) (A)
                 (A) (A) (A) (A) (A) (A) (A) (A) (A) (A) (A) (A)
                 (A) (A) (A) (A) (A) (A) (A) (A) (A) (A) (A) (A)
                 (A) (A) (A) (A) (A) (A) (A) (A) (A) (A) (A) (A)
                 (A) (A) (A) (A) (A) (A) (A) (A) (A) (A) (A) (A)
                 (A) (A) (A) (A) (A) (A) (A) (A) (A) (A) (A) (A)
                 (A) (A) (A) (A) (A) (A) (A) (A) (A) (A) (A) (A)
                 (A)
 The electronic state is 1-A.
 Alpha  occ. eigenvalues --  -24.49899 -24.27941 -10.06000  -1.01012  -0.74314
 Alpha  occ. eigenvalues --   -0.52107  -0.30794  -0.30289  -0.30289  -0.18379
 Alpha  occ. eigenvalues --   -0.18379  -0.03057  -0.02960  -0.02960
 Alpha virt. eigenvalues --    0.11381   0.13473   0.13474   0.16538   0.20387
 Alpha virt. eigenvalues --    0.20389   0.21129   0.26066   0.27457   0.27457
 Alpha virt. eigenvalues --    0.28881   0.29457   0.29460   0.32906   0.36866
 Alpha virt. eigenvalues --    0.36869   0.39473   0.39778   0.39780   0.42805
 Alpha virt. eigenvalues --    0.43015   0.43843   0.43850   0.45386   0.46530
 Alpha virt. eigenvalues --    0.46537   0.49233   0.50184   0.50190   0.59241
 Alpha virt. eigenvalues --    0.59245   0.59315   0.71379   0.72966   0.72972
 Alpha virt. eigenvalues --    0.75799   0.77803   0.82818   0.82820   0.89541
 Alpha virt. eigenvalues --    0.89548   0.91322   0.96685   0.96686   0.96716
 Alpha virt. eigenvalues --    0.99544   0.99547   1.01636   1.01638   1.02781
 Alpha virt. eigenvalues --    1.07930   1.07931   1.11723   1.11732   1.12171
 Alpha virt. eigenvalues --    1.12513   1.19503   1.20267   1.20268   1.22749
 Alpha virt. eigenvalues --    1.22753   1.23617   1.26116   1.26118   1.28369
 Alpha virt. eigenvalues --    1.28385   1.30504   1.44565   1.51146   1.51186
 Alpha virt. eigenvalues --    1.52431   1.56880   1.56885   1.59461   1.61633
 Alpha virt. eigenvalues --    1.61637   1.64122   1.64127   1.64163   1.71335
 Alpha virt. eigenvalues --    1.74734   1.74745   1.79007   1.88677   1.88684
 Alpha virt. eigenvalues --    1.88918   2.00219   2.00227   2.07407   2.12509
 Alpha virt. eigenvalues --    2.12512   2.23757   2.52425   2.60550   2.78593
 Alpha virt. eigenvalues --    2.78597   2.84288   2.88448   2.89089   2.89090
 Alpha virt. eigenvalues --    2.92755   2.92757   2.96796   2.96801   2.96886
 Alpha virt. eigenvalues --    2.97778   2.99747   2.99766   3.03149   3.03496
 Alpha virt. eigenvalues --    3.13579   3.15382   3.15401   3.17414   3.17451
 Alpha virt. eigenvalues --    3.23449   3.28370   3.28371   3.42110   3.44956
 Alpha virt. eigenvalues --    3.44970   3.50768   3.52544   3.52549   3.63377
 Alpha virt. eigenvalues --    3.63387   3.66454   3.72058   3.72060   3.91046
 Alpha virt. eigenvalues --    3.91055   3.92858   3.97744   3.97759   4.05595
 Alpha virt. eigenvalues --    4.14544   4.25461   4.25464   4.38794   4.50674
 Alpha virt. eigenvalues --    4.58939   4.58952   4.60273   4.60286   4.76254
 Alpha virt. eigenvalues --    4.80599   4.86265   4.86276   4.97856   4.97858
 Alpha virt. eigenvalues --    5.15172   5.15454   5.15470   5.37418   5.38595
 Alpha virt. eigenvalues --    5.38598   5.47322   5.47327   5.50064   5.53804
 Alpha virt. eigenvalues --    5.81933   5.92470   5.92473   6.37961   6.37964
 Alpha virt. eigenvalues --    6.63996   8.55271   8.57882   8.67578   8.68098
 Alpha virt. eigenvalues --    8.70703   8.70715   8.75374   8.75382   8.84140
 Alpha virt. eigenvalues --    8.84146   8.85753   8.98039   8.98042   9.00008
 Alpha virt. eigenvalues --    9.03427   9.03428   9.09996   9.10000   9.21590
 Alpha virt. eigenvalues --    9.21596   9.25931   9.31212   9.31214   9.43453
 Alpha virt. eigenvalues --   11.35275  14.39059  17.19537
          Condensed to atoms (all electrons):
               1          2          3          4          5          6
     1  C    5.248306   0.365031   0.364935   0.365054  -0.038690  -0.002282
     2  H    0.365031   0.412034  -0.007708  -0.007792   0.002608  -0.020137
     3  H    0.364935  -0.007708   0.411887  -0.007725   0.002596  -0.020180
     4  H    0.365054  -0.007792  -0.007725   0.412147   0.002564  -0.020123
     5  F   -0.038690   0.002608   0.002596   0.002564   9.512565   0.010548
     6  F   -0.002282  -0.020137  -0.020180  -0.020123   0.010548  10.025662
 Mulliken charges:
               1
     1  C   -0.302353
     2  H    0.255964
     3  H    0.256195
     4  H    0.255875
     5  F   -0.492191
     6  F   -0.973489
 Sum of Mulliken charges =  -1.00000
 Mulliken charges with hydrogens summed into heavy atoms:
               1
     1  C    0.465680
     5  F   -0.492191
     6  F   -0.973489
 APT charges:
               1
     1  C    0.684073
     2  H   -0.002468
     3  H   -0.002288
     4  H   -0.002603
     5  F   -0.693231
     6  F   -0.983484
 Sum of APT charges =  -1.00000
 APT charges with hydrogens summed into heavy atoms:
               1
     1  C    0.676715
     5  F   -0.693231
     6  F   -0.983484
 Electronic spatial extent (au):  <R**2>=            343.9555
 Charge=             -1.0000 electrons
 Dipole moment (field-independent basis, Debye):
    X=              0.0001    Y=              0.0243    Z=             -6.6619  Tot=              6.6620
 Quadrupole moment (field-independent basis, Debye-Ang):
   XX=            -19.9469   YY=            -19.9474   ZZ=            -48.8469
   XY=              0.0001   XZ=             -0.0003   YZ=              0.0996
 Traceless Quadrupole moment (field-independent basis, Debye-Ang):
   XX=              9.6335   YY=              9.6330   ZZ=            -19.2665
   XY=              0.0001   XZ=             -0.0003   YZ=              0.0996
 Octapole moment (field-independent basis, Debye-Ang**2):
  XXX=              0.0945  YYY=              0.5943  ZZZ=            -46.1347  XYY=             -0.0948
  XXY=             -0.5438  XXZ=             -3.8094  XZZ=             -0.0001  YZZ=              0.1368
  YYZ=             -3.8069  XYZ=             -0.0003
 Hexadecapole moment (field-independent basis, Debye-Ang**3):
 XXXX=            -29.2153 YYYY=            -29.2190 ZZZZ=           -481.4106 XXXY=              0.0000
 XXXZ=              0.0071 YYYX=              0.0000 YYYZ=              0.6248 ZZZX=             -0.0027
 ZZZY=              0.9936 XXYY=             -9.7394 XXZZ=            -64.9591 YYZZ=            -64.9609
 XXYZ=              0.1397 YYXZ=             -0.0093 ZZXY=              0.0001
 N-N= 6.384938230677D+01 E-N=-7.045379626741D+02  KE= 2.384205679335D+02
  Exact polarizability:  28.697  -0.006  28.689   0.009  -0.034  40.002
 Approx polarizability:  34.670   0.000  34.670   0.000  -0.028  43.345
 Calling FoFJK, ICntrl=    100127 FMM=F ISym2X=0 I1Cent= 0 IOpClX= 0 NMat=1 NMatS=1 NMatT=0.
 Full mass-weighted force constant matrix:
 Low frequencies ---   -7.6088   -0.0008    0.0014    0.0014    3.6290    9.7250
 Low frequencies ---  110.8609  113.5061  168.0006
 Diagonal vibrational polarizability:
       33.0103380      31.5708656      72.1452945
 Harmonic frequencies (cm**-1), IR intensities (KM/Mole), Raman scattering
 activities (A**4/AMU), depolarization ratios for plane and unpolarized
 incident light, reduced masses (AMU), force constants (mDyne/A),
 and normal coordinates:
                      1                      2                      3
                      A                      A                      A
 Frequencies --    110.8600               113.4812               167.9990
 Red. masses --      2.9273                 2.9322                11.9494
 Frc consts  --      0.0212                 0.0222                 0.1987
 IR Inten    --     15.0020                15.0238                64.8502
  Atom  AN      X      Y      Z        X      Y      Z        X      Y      Z
     1   6     0.33  -0.03   0.00     0.03   0.33   0.00     0.00   0.01   0.38
     2   1     0.46  -0.05  -0.37     0.03   0.44   0.14     0.01   0.00   0.34
     3   1     0.46  -0.03   0.31     0.05   0.45   0.25    -0.01   0.00   0.34
     4   1     0.44  -0.04   0.06     0.04   0.47  -0.39     0.00   0.02   0.33
     5   9    -0.16   0.02   0.00    -0.02  -0.17   0.00     0.00   0.00   0.34
     6   9    -0.11   0.01   0.00    -0.01  -0.11   0.00     0.00   0.00  -0.63
                      4                      5                      6
                      A                      A                      A
 Frequencies --    849.7145              1102.0527              1103.1134
 Red. masses --     11.3102                 1.2353                 1.2347
 Frc consts  --      4.8113                 0.8839                 0.8852
 IR Inten    --    275.7470                 2.3210                 2.3089
  Atom  AN      X      Y      Z        X      Y      Z        X      Y      Z
     1   6     0.00   0.00   0.71     0.13  -0.01   0.00     0.01   0.13   0.00
     2   1     0.10  -0.05   0.25    -0.13  -0.02   0.71    -0.03  -0.17  -0.32
     3   1    -0.10  -0.06   0.25    -0.14   0.04  -0.63     0.02  -0.16  -0.46
     4   1    -0.01   0.11   0.25    -0.18   0.00  -0.08    -0.01  -0.12   0.77
     5   9     0.00   0.00  -0.51    -0.05   0.00   0.00     0.00  -0.05   0.00
     6   9     0.00   0.00   0.02     0.00   0.00   0.00     0.00   0.00   0.00
                      7                      8                      9
                      A                      A                      A
 Frequencies --   1369.2804              1466.6837              1466.9292
 Red. masses --      1.0970                 1.0654                 1.0653
 Frc consts  --      1.2118                 1.3503                 1.3506
 IR Inten    --      0.2378                 5.0590                 5.0851
  Atom  AN      X      Y      Z        X      Y      Z        X      Y      Z
     1   6     0.00   0.00  -0.08     0.07  -0.02   0.00    -0.02  -0.07   0.00
     2   1    -0.17   0.08   0.54     0.07  -0.15  -0.25     0.36   0.67  -0.03
     3   1     0.16   0.10   0.54    -0.27   0.55   0.15    -0.34   0.34  -0.20
     4   1     0.01  -0.19   0.54    -0.70  -0.09   0.10     0.30  -0.10   0.23
     5   9     0.00   0.00  -0.03     0.00   0.00   0.00     0.00   0.00   0.00
     6   9     0.00   0.00   0.00     0.00   0.00   0.00     0.00   0.00   0.00
                     10                     11                     12
                      A                      A                      A
 Frequencies --   3101.9520              3200.9993              3201.2510
 Red. masses --      1.0243                 1.1113                 1.1114
 Frc consts  --      5.8070                 6.7092                 6.7103
 IR Inten    --      6.1947                22.6681                22.6722
  Atom  AN      X      Y      Z        X      Y      Z        X      Y      Z
     1   6     0.00   0.00  -0.04     0.01  -0.10   0.00    -0.10  -0.01   0.00
     2   1     0.49  -0.25   0.16    -0.39   0.18  -0.13     0.57  -0.30   0.20
     3   1    -0.46  -0.30   0.16     0.30   0.17  -0.11     0.58   0.39  -0.22
     4   1    -0.03   0.55   0.17    -0.04   0.77   0.24    -0.03   0.05   0.02
     5   9     0.00   0.00   0.00     0.00   0.00   0.00     0.00   0.00   0.00
     6   9     0.00   0.00   0.00     0.00   0.00   0.00     0.00   0.00   0.00

 -------------------
 - Thermochemistry -
 -------------------
 Temperature   298.150 Kelvin.  Pressure   1.00000 Atm.
 Atom     1 has atomic number  6 and mass  12.00000
 Atom     2 has atomic number  1 and mass   1.00783
 Atom     3 has atomic number  1 and mass   1.00783
 Atom     4 has atomic number  1 and mass   1.00783
 Atom     5 has atomic number  9 and mass  18.99840
 Atom     6 has atomic number  9 and mass  18.99840
 Molecular mass:    53.02028 amu.
 Principal axes and moments of inertia in atomic units:
                           1         2         3
     Eigenvalues --    11.38579 568.13454 568.13472
           X            0.00001   0.00355   0.99999
           Y           -0.00343   0.99999  -0.00355
           Z            0.99999   0.00343  -0.00002
 This molecule is an asymmetric top.
 Rotational symmetry number  1.
 Rotational temperatures (Kelvin)      7.60719     0.15245     0.15245
 Rotational constants (GHZ):         158.50828     3.17661     3.17661
 Zero-point vibrational energy     103203.7 (Joules/Mol)
                                   24.66628 (Kcal/Mol)
 Warning -- explicit consideration of   3 degrees of freedom as
           vibrations may cause significant error
 Vibrational temperatures:    159.50   163.27   241.71  1222.55  1585.61
          (Kelvin)           1587.13  1970.09  2110.23  2110.58  4463.01
                             4605.52  4605.88
 
 Zero-point correction=                           0.039308 (Hartree/Particle)
 Thermal correction to Energy=                    0.044311
 Thermal correction to Enthalpy=                  0.045255
 Thermal correction to Gibbs Free Energy=         0.012038
 Sum of electronic and zero-point Energies=           -239.681452
 Sum of electronic and thermal Energies=              -239.676449
 Sum of electronic and thermal Enthalpies=            -239.675505
 Sum of electronic and thermal Free Energies=         -239.708722
 
                     E (Thermal)             CV                S
                      KCal/Mol        Cal/Mol-Kelvin    Cal/Mol-Kelvin
 Total                   27.805             13.136             69.911
 Electronic               0.000              0.000              0.000
 Translational            0.889              2.981             37.827
 Rotational               0.889              2.981             22.823
 Vibrational             26.028              7.174              9.261
 Vibration     1          0.607              1.940              3.254
 Vibration     2          0.607              1.938              3.208
 Vibration     3          0.625              1.882              2.458
                       Q            Log10(Q)             Ln(Q)
 Total Bot       0.290387D-05         -5.537023        -12.749466
 Total V=0       0.349516D+13         12.543467         28.882400
 Vib (Bot)       0.881819D-17        -17.054620        -39.269715
 Vib (Bot)    1  0.184714D+01          0.266500          0.613640
 Vib (Bot)    2  0.180345D+01          0.256105          0.589703
 Vib (Bot)    3  0.120035D+01          0.079306          0.182610
 Vib (V=0)       0.106138D+02          1.025869          2.362151
 Vib (V=0)    1  0.241362D+01          0.382669          0.881127
 Vib (V=0)    2  0.237148D+01          0.375020          0.863515
 Vib (V=0)    3  0.180032D+01          0.255350          0.587964
 Electronic      0.100000D+01          0.000000          0.000000
 Translational   0.151746D+08          7.181118         16.535136
 Rotational      0.217010D+05          4.336479          9.985112
 ***** Axes restored to original set *****
 -------------------------------------------------------------------
 Center     Atomic                   Forces (Hartrees/Bohr)
 Number     Number              X              Y              Z
 -------------------------------------------------------------------
      1        6           0.000007178    0.000010703   -0.000000814
      2        1           0.000003035   -0.000004127    0.000002900
      3        1           0.000003201   -0.000006118   -0.000001044
      4        1           0.000001226   -0.000006161   -0.000000879
      5        9          -0.000010630    0.000005178   -0.000000826
      6        9          -0.000004009    0.000000525    0.000000662
 -------------------------------------------------------------------
 Cartesian Forces:  Max     0.000010703 RMS     0.000004987

 GradGradGradGradGradGradGradGradGradGradGradGradGradGradGradGradGradGrad
 Berny optimization.
 Search for a local minimum.
 Step number   1 out of a maximum of    2
 All quantities printed in internal units (Hartrees-Bohrs-Radians)
 Second derivative matrix not updated -- analytic derivatives used.
 The second derivative matrix:
                          X1        Y1        Z1        X2        Y2
           X1           0.31388
           Y1          -0.00017   0.61858
           Z1           0.00002  -0.00001   0.61871
           X2          -0.05571   0.03253   0.06392   0.07804
           Y2           0.03543  -0.10600  -0.10672  -0.03940   0.10461
           Z2           0.06965  -0.10670  -0.26143  -0.07746   0.11346
           X3          -0.05571   0.03909  -0.06013   0.00526  -0.00401
           Y3           0.04263  -0.13008   0.12063  -0.00333   0.00904
           Z3          -0.06557   0.12061  -0.23732  -0.00668   0.01506
           X4          -0.05569  -0.07143  -0.00378   0.00524   0.00746
           Y4          -0.07778  -0.31500  -0.01389  -0.00342  -0.01097
           Z4          -0.00411  -0.01390  -0.05243  -0.00662  -0.02662
           X5          -0.15443  -0.00002  -0.00002  -0.03014   0.00005
           Y5          -0.00004  -0.06271   0.00000   0.01323   0.00386
           Z5           0.00000   0.00000  -0.06273   0.02602   0.00357
           X6           0.00766   0.00000  -0.00001  -0.00269   0.00047
           Y6          -0.00008  -0.00480   0.00000   0.00039  -0.00054
           Z6           0.00001   0.00000  -0.00480   0.00081   0.00125
                          Z2        X3        Y3        Z3        X4
           Z2           0.26982
           X3           0.00629   0.07803
           Y3          -0.01205  -0.04738   0.13021
           Z3          -0.01935   0.07286  -0.12824   0.24420
           X4           0.00045   0.00522   0.00747   0.00034   0.07804
           Y4           0.00050  -0.00409  -0.01356  -0.00202   0.08656
           Z4           0.00063   0.00621   0.02509   0.00324   0.00460
           X5           0.00013  -0.03013   0.00005  -0.00010  -0.03013
           Y5           0.00355   0.01592   0.00465  -0.00401  -0.02918
           Z5           0.00902  -0.02448  -0.00402   0.00822  -0.00153
           X6           0.00094  -0.00268   0.00055  -0.00085  -0.00269
           Y6           0.00124   0.00048  -0.00027  -0.00141  -0.00086
           Z6           0.00131  -0.00075  -0.00141   0.00101  -0.00007
                          Y4        Z4        X5        Y5        Z5
           Y4           0.32686
           Z4           0.01478   0.04766
           X5          -0.00017  -0.00001   0.25800
           Y5           0.01078   0.00047   0.00008   0.04063
           Z5           0.00046   0.00206  -0.00001  -0.00001   0.04064
           X6          -0.00109  -0.00007  -0.01317   0.00000   0.00000
           Y6           0.00189   0.00017   0.00001   0.00278   0.00000
           Z6           0.00016  -0.00116   0.00000   0.00000   0.00279
                          X6        Y6        Z6
           X6           0.01357
           Y6           0.00007   0.00093
           Z6          -0.00001  -0.00001   0.00086
 ITU=  0
     Eigenvalues ---    0.00181   0.00190   0.01464   0.07998   0.08005
     Eigenvalues ---    0.12526   0.12613   0.12615   0.31254   0.53011
     Eigenvalues ---    0.87098   0.87116
 Angle between quadratic step and forces=  74.47 degrees.
 Linear search not attempted -- first point.
 TrRot= -0.000041  0.000343 -0.000018  0.000026  0.000003  0.000026
 Variable       Old X    -DE/DX   Delta X   Delta X   Delta X     New X
                                 (Linear)    (Quad)   (Total)
    X1       -0.79107   0.00001   0.00000   0.00011   0.00007  -0.79100
    Y1        0.00070   0.00001   0.00000  -0.00058  -0.00028   0.00042
    Z1       -0.00008   0.00000   0.00000   0.00003   0.00002  -0.00006
    X2       -0.14401   0.00000   0.00000  -0.00031  -0.00031  -0.14432
    Y2       -0.87922   0.00000   0.00000  -0.00095  -0.00061  -0.87983
    Z2       -1.72952   0.00000   0.00000   0.00006   0.00004  -1.72948
    X3       -0.14386   0.00000   0.00000  -0.00051  -0.00049  -0.14434
    Y3       -1.05656  -0.00001   0.00000  -0.00097  -0.00063  -1.05719
    Z3        1.62694   0.00000   0.00000   0.00005   0.00003   1.62697
    X4       -0.14534   0.00000   0.00000   0.00115   0.00100  -0.14433
    Y4        1.93892  -0.00001   0.00000  -0.00097  -0.00063   1.93829
    Z4        0.10229   0.00000   0.00000   0.00004   0.00002   0.10231
    X5       -3.52285  -0.00001   0.00000   0.00005   0.00001  -3.52284
    Y5       -0.00053   0.00001   0.00000   0.00071   0.00086   0.00033
    Z5        0.00005   0.00000   0.00000  -0.00004  -0.00004   0.00001
    X6        4.09837   0.00000   0.00000  -0.00025  -0.00029   4.09808
    Y6       -0.00028   0.00000   0.00000   0.00073   0.00129   0.00101
    Z6        0.00003   0.00000   0.00000  -0.00004  -0.00007  -0.00004
         Item               Value     Threshold  Converged?
 Maximum Force            0.000011     0.000450     YES
 RMS     Force            0.000005     0.000300     YES
 Maximum Displacement     0.001289     0.001800     YES
 RMS     Displacement     0.000532     0.001200     YES
 Predicted change in Energy=-5.859294D-09
 Optimization completed.
    -- Stationary point found.
 GradGradGradGradGradGradGradGradGradGradGradGradGradGradGradGradGradGrad

 1\1\ RAL UV 2000-SLATER\Freq\RB3LYP\Aug-CC-pVTZ\C1H3F2(1-)\RP10\25-Jul
 -2015\0\\# B3LYP/aug-cc-pvtz freq\\CH3F_F_SN2\\-1,1\C,-0.418618,0.0003
 73,-0.00004\H,-0.076209,-0.465265,-0.91522\H,-0.076126,-0.559107,0.860
 937\H,-0.076909,1.026033,0.054127\F,-1.864212,-0.000283,0.000028\F,2.1
 68763,-0.00015,0.000016\\Version=ES64L-G09RevD.01\State=1-A\HF=-239.72
 07603\RMSD=4.999e-09\RMSF=4.987e-06\ZeroPoint=0.0393082\Thermal=0.0443
 109\Dipole=-2.621026,0.0005471,-0.0000645\DipoleDeriv=1.4939225,0.0001
 418,-0.0003681,0.0009036,0.2790966,-0.0000011,-0.0006661,0.0005039,0.2
 792013,0.0410958,0.0016185,0.002821,0.0125331,0.0270601,-0.0705279,0.0
 249029,-0.0707003,-0.0755598,0.0415357,0.001568,-0.0027658,0.0147429,0
 .0113716,0.0797652,-0.0228315,0.0794139,-0.0597699,0.0408431,-0.002998
 5,-0.0002224,-0.0278299,-0.1111044,-0.0092634,-0.0013982,-0.0092272,0.
 0624537,-1.4172354,-0.0003591,0.0003688,-0.0004784,-0.3312253,0.000035
 4,0.0000576,-0.0000041,-0.3312324,-1.2001618,0.0000293,0.0001664,0.000
 1286,-0.8751987,-0.0000082,-0.0000648,0.0000138,-0.8750929\Polar=40.00
 2311,0.0046542,28.6885211,-0.0088056,0.0064594,28.6973594\PG=C01 [X(C1
 H3F2)]\NImag=0\\0.31387576,-0.00016648,0.61858356,0.00002243,-0.000010
 81,0.61871071,-0.05570641,0.03253303,0.06391670,0.07803547,0.03543068,
 -0.10599735,-0.10671749,-0.03940231,0.10461300,0.06964535,-0.10670031,
 -0.26142566,-0.07745523,0.11345717,0.26982333,-0.05571306,0.03908629,-
 0.06013339,0.00526113,-0.00401220,0.00629222,0.07803153,0.04263165,-0.
 13007738,0.12062756,-0.00332753,0.00903675,-0.01205254,-0.04737681,0.1
 3021146,-0.06556964,0.12061074,-0.23732073,-0.00667586,0.01506020,-0.0
 1934910,0.07285916,-0.12823637,0.24419688,-0.05568869,-0.07143466,-0.0
 0378031,0.00524166,0.00746050,0.00044529,0.00522496,0.00746550,0.00033
 749,0.07804304,-0.07778233,-0.31500062,-0.01389128,-0.00342351,-0.0109
 7235,0.00049903,-0.00409164,-0.01355925,-0.00201514,0.08655766,0.32686
 119,-0.00411067,-0.01389912,-0.05243432,-0.00661875,-0.02662050,0.0006
 3067,0.00620986,0.02509084,0.00323856,0.00459515,0.01478058,0.04766287
 ,-0.15443041,-0.00002049,-0.00001503,-0.03014009,0.00005437,0.00013469
 ,-0.03012864,0.00005477,-0.00010256,-0.03012659,-0.00017239,-0.0000065
 1,0.25799507,-0.00003600,-0.06270570,-0.00000345,0.01322922,0.00385919
 ,0.00355408,0.01591512,0.00465425,-0.00401349,-0.02918495,0.01077606,0
 .00047396,0.00007866,0.04063159,-0.00000217,-0.00000267,-0.06272971,0.
 02602247,0.00356755,0.00901510,-0.02448098,-0.00401682,0.00822224,-0.0
 0153108,0.00046272,0.00206304,-0.00000851,-0.00001065,0.04064132,0.007
 66281,0.00000230,-0.00001041,-0.00269176,0.00046895,0.00093768,-0.0026
 7592,0.00055243,-0.00084859,-0.00269439,-0.00108779,-0.00006908,-0.013
 16935,-0.00000204,0.00000028,0.01356860,-0.00007752,-0.00480251,-0.000
 00453,0.00039109,-0.00053924,0.00124257,0.00047925,-0.00026582,-0.0014
 0594,-0.00086405,0.00189497,0.00017423,0.00000508,0.00278461,-0.000000
 12,0.00006615,0.00092798,0.00001471,0.00000218,-0.00480030,0.00081068,
 0.00125307,0.00130565,-0.00074688,-0.00141267,0.00101214,-0.00006653,0
 .00016410,-0.00116082,-0.00000209,-0.00000045,0.00278800,-0.00000988,-
 0.00000622,0.00085532\\-0.00000718,-0.00001070,0.00000081,-0.00000303,
 0.00000413,-0.00000290,-0.00000320,0.00000612,0.00000104,-0.00000123,0
 .00000616,0.00000088,0.00001063,-0.00000518,0.00000083,0.00000401,-0.0
 0000053,-0.00000066\\\@


 IT IS A QUALITY OF REVOLUTIONS NOT TO GO BY OLD LINES OR OLD LAWS,
 BUT TO BREAK UP BOTH, AND MAKE NEW ONES.
                                              -- A. LINCOLN (1848)
 Job cpu time:       0 days  0 hours  9 minutes 23.7 seconds.
 File lengths (MBytes):  RWF=     26 Int=      0 D2E=      0 Chk=      4 Scr=      1
 Normal termination of Gaussian 09 at Sat Jul 25 21:27:59 2015.
