 Entering Gaussian System, Link 0=g09
 Initial command:
 /usr/local/gaussian/g09/l1.exe "/scratch/710930.1.multiway.q/Gau-41387.inp" -scrdir="/scratch/710930.1.multiway.q/"
 Entering Link 1 = /usr/local/gaussian/g09/l1.exe PID=     41388.
  
 Copyright (c) 1988,1990,1992,1993,1995,1998,2003,2009,2013,
            Gaussian, Inc.  All Rights Reserved.
  
 This is part of the Gaussian(R) 09 program.  It is based on
 the Gaussian(R) 03 system (copyright 2003, Gaussian, Inc.),
 the Gaussian(R) 98 system (copyright 1998, Gaussian, Inc.),
 the Gaussian(R) 94 system (copyright 1995, Gaussian, Inc.),
 the Gaussian 92(TM) system (copyright 1992, Gaussian, Inc.),
 the Gaussian 90(TM) system (copyright 1990, Gaussian, Inc.),
 the Gaussian 88(TM) system (copyright 1988, Gaussian, Inc.),
 the Gaussian 86(TM) system (copyright 1986, Carnegie Mellon
 University), and the Gaussian 82(TM) system (copyright 1983,
 Carnegie Mellon University). Gaussian is a federally registered
 trademark of Gaussian, Inc.
  
 This software contains proprietary and confidential information,
 including trade secrets, belonging to Gaussian, Inc.
  
 This software is provided under written license and may be
 used, copied, transmitted, or stored only in accord with that
 written license.
  
 The following legend is applicable only to US Government
 contracts under FAR:
  
                    RESTRICTED RIGHTS LEGEND
  
 Use, reproduction and disclosure by the US Government is
 subject to restrictions as set forth in subparagraphs (a)
 and (c) of the Commercial Computer Software - Restricted
 Rights clause in FAR 52.227-19.
  
 Gaussian, Inc.
 340 Quinnipiac St., Bldg. 40, Wallingford CT 06492
  
  
 ---------------------------------------------------------------
 Warning -- This program may not be used in any manner that
 competes with the business of Gaussian, Inc. or will provide
 assistance to any competitor of Gaussian, Inc.  The licensee
 of this program is prohibited from giving any competitor of
 Gaussian, Inc. access to this program.  By using this program,
 the user acknowledges that Gaussian, Inc. is engaged in the
 business of creating and licensing software in the field of
 computational chemistry and represents and warrants to the
 licensee that it is not a competitor of Gaussian, Inc. and that
 it will not use this program in any manner prohibited above.
 ---------------------------------------------------------------
  

 Cite this work as:
 Gaussian 09, Revision D.01,
 M. J. Frisch, G. W. Trucks, H. B. Schlegel, G. E. Scuseria, 
 M. A. Robb, J. R. Cheeseman, G. Scalmani, V. Barone, B. Mennucci, 
 G. A. Petersson, H. Nakatsuji, M. Caricato, X. Li, H. P. Hratchian, 
 A. F. Izmaylov, J. Bloino, G. Zheng, J. L. Sonnenberg, M. Hada, 
 M. Ehara, K. Toyota, R. Fukuda, J. Hasegawa, M. Ishida, T. Nakajima, 
 Y. Honda, O. Kitao, H. Nakai, T. Vreven, J. A. Montgomery, Jr., 
 J. E. Peralta, F. Ogliaro, M. Bearpark, J. J. Heyd, E. Brothers, 
 K. N. Kudin, V. N. Staroverov, T. Keith, R. Kobayashi, J. Normand, 
 K. Raghavachari, A. Rendell, J. C. Burant, S. S. Iyengar, J. Tomasi, 
 M. Cossi, N. Rega, J. M. Millam, M. Klene, J. E. Knox, J. B. Cross, 
 V. Bakken, C. Adamo, J. Jaramillo, R. Gomperts, R. E. Stratmann, 
 O. Yazyev, A. J. Austin, R. Cammi, C. Pomelli, J. W. Ochterski, 
 R. L. Martin, K. Morokuma, V. G. Zakrzewski, G. A. Voth, 
 P. Salvador, J. J. Dannenberg, S. Dapprich, A. D. Daniels, 
 O. Farkas, J. B. Foresman, J. V. Ortiz, J. Cioslowski, 
 and D. J. Fox, Gaussian, Inc., Wallingford CT, 2013.
 
 ******************************************
 Gaussian 09:  ES64L-G09RevD.01 24-Apr-2013
                 2-Apr-2017 
 ******************************************
 %chk=claisen_gs_c13.chk
 %nprocshared=8
 Will use up to    8 processors via shared memory.
 %mem=16GB
 ----------------------------------------
 #p freq b3lyp/6-31g(d) geom=connectivity
 ----------------------------------------
 1/10=4,30=1,38=1,57=2/1,3;
 2/12=2,17=6,18=5,40=1/2;
 3/5=1,6=6,7=1,11=2,16=1,25=1,30=1,71=2,74=-5,140=1/1,2,3;
 4//1;
 5/5=2,38=5,98=1/2;
 8/6=4,10=90,11=11/1;
 11/6=1,8=1,9=11,15=111,16=1/1,2,10;
 10/6=1/2;
 6/7=2,8=2,9=2,10=2,18=1,28=1/1;
 7/8=1,10=1,25=1/1,2,3,16;
 1/10=4,30=1/3;
 99//99;
 Leave Link    1 at Sun Apr  2 00:31:07 2017, MaxMem=  2147483648 cpu:         0.2
 (Enter /usr/local/gaussian/g09/l101.exe)
 ----------------------
 ground state structure
 ----------------------
 Symbolic Z-matrix:
 Charge =  0 Multiplicity = 1
 C(iso=13)             2.52936   0.36133  -0.00002 
 C                     1.65099  -0.64617  0. 
 O                     0.29433  -0.5863    0.00003 
 C                    -0.29684   0.70471   0.00002 
 C                    -1.79296   0.59159  -0.00001 
 C                    -2.48616  -0.54504  -0.00002 
 H                     3.58862   0.13174  -0.00005 
 H                     2.24818   1.40772  -0.00001 
 H                     1.96758  -1.68576  -0.00001 
 H                     0.04355   1.26897  -0.88381 
 H                     0.04351   1.26897   0.88386 
 H                    -2.30947   1.55144  -0.00002 
 H                    -3.57227  -0.54088  -0.00004 
 H                    -1.99067  -1.51025  0. 
 
 NAtoms=     14 NQM=       14 NQMF=       0 NMMI=      0 NMMIF=      0
                NMic=       0 NMicF=      0.
                    Isotopes and Nuclear Properties:
 (Nuclear quadrupole moments (NQMom) in fm**2, nuclear magnetic moments (NMagM)
  in nuclear magnetons)

  Atom         1           2           3           4           5           6           7           8           9          10
 IAtWgt=          13          12          16          12          12          12           1           1           1           1
 AtmWgt=  13.0033548  12.0000000  15.9949146  12.0000000  12.0000000  12.0000000   1.0078250   1.0078250   1.0078250   1.0078250
 NucSpn=           1           0           0           0           0           0           1           1           1           1
 AtZEff=   0.0000000   0.0000000   0.0000000   0.0000000   0.0000000   0.0000000   0.0000000   0.0000000   0.0000000   0.0000000
 NQMom=    0.0000000   0.0000000   0.0000000   0.0000000   0.0000000   0.0000000   0.0000000   0.0000000   0.0000000   0.0000000
 NMagM=    0.7024110   0.0000000   0.0000000   0.0000000   0.0000000   0.0000000   2.7928460   2.7928460   2.7928460   2.7928460
 AtZNuc=   6.0000000   6.0000000   8.0000000   6.0000000   6.0000000   6.0000000   1.0000000   1.0000000   1.0000000   1.0000000

  Atom        11          12          13          14
 IAtWgt=           1           1           1           1
 AtmWgt=   1.0078250   1.0078250   1.0078250   1.0078250
 NucSpn=           1           1           1           1
 AtZEff=   0.0000000   0.0000000   0.0000000   0.0000000
 NQMom=    0.0000000   0.0000000   0.0000000   0.0000000
 NMagM=    2.7928460   2.7928460   2.7928460   2.7928460
 AtZNuc=   1.0000000   1.0000000   1.0000000   1.0000000
 Leave Link  101 at Sun Apr  2 00:31:07 2017, MaxMem=  2147483648 cpu:         0.6
 (Enter /usr/local/gaussian/g09/l103.exe)

 GradGradGradGradGradGradGradGradGradGradGradGradGradGradGradGradGradGrad
 Berny optimization.
 Initialization pass.
 Trust Radius=3.00D-01 FncErr=1.00D-07 GrdErr=1.00D-07
 Number of steps in this run=      2 maximum allowed number of steps=      2.
 GradGradGradGradGradGradGradGradGradGradGradGradGradGradGradGradGradGrad

 Leave Link  103 at Sun Apr  2 00:31:07 2017, MaxMem=  2147483648 cpu:         0.1
 (Enter /usr/local/gaussian/g09/l202.exe)
                          Input orientation:                          
 ---------------------------------------------------------------------
 Center     Atomic      Atomic             Coordinates (Angstroms)
 Number     Number       Type             X           Y           Z
 ---------------------------------------------------------------------
      1          6           0        2.529357    0.361330   -0.000020
      2          6           0        1.650985   -0.646172   -0.000002
      3          8           0        0.294333   -0.586301    0.000029
      4          6           0       -0.296838    0.704706    0.000021
      5          6           0       -1.792958    0.591589   -0.000009
      6          6           0       -2.486162   -0.545043   -0.000017
      7          1           0        3.588621    0.131739   -0.000045
      8          1           0        2.248176    1.407720   -0.000013
      9          1           0        1.967584   -1.685756   -0.000009
     10          1           0        0.043549    1.268971   -0.883806
     11          1           0        0.043514    1.268967    0.883863
     12          1           0       -2.309465    1.551442   -0.000020
     13          1           0       -3.572272   -0.540878   -0.000037
     14          1           0       -1.990668   -1.510251   -0.000004
 ---------------------------------------------------------------------
                    Distance matrix (angstroms):
                    1          2          3          4          5
     1  C    0.000000
     2  C    1.336637   0.000000
     3  O    2.427620   1.357972   0.000000
     4  C    2.846978   2.370419   1.419923   0.000000
     5  C    4.328444   3.659617   2.396708   1.500390   0.000000
     6  C    5.096758   4.138383   2.780801   2.520915   1.331339
     7  H    1.083860   2.087960   3.371634   3.927478   5.401190
     8  H    1.083510   2.138951   2.791706   2.640327   4.122722
     9  H    2.122769   1.086724   2.002141   3.292706   4.396359
    10  H    2.790006   2.651930   2.070288   1.102456   2.147720
    11  H    2.790066   2.651969   2.070288   1.102455   2.147720
    12  H    4.983028   4.529312   3.368933   2.183490   1.089999
    13  H    6.167970   5.224318   3.866872   3.504276   2.109132
    14  H    4.892182   3.742762   2.464734   2.788386   2.111118
                    6          7          8          9         10
     6  C    0.000000
     7  H    6.112366   0.000000
     8  H    5.121254   1.850654   0.000000
     9  H    4.597508   2.435375   3.106175   0.000000
    10  H    3.235918   3.826469   2.379227   3.635027   0.000000
    11  H    3.235914   3.826534   2.379291   3.635060   1.767669
    12  H    2.103918   6.066546   4.559907   5.364010   2.529336
    13  H    1.086118   7.192413   6.137968   5.656921   4.138933
    14  H    1.084961   5.815892   5.146101   3.962141   3.555731
                   11         12         13         14
    11  H    0.000000
    12  H    2.529338   0.000000
    13  H    4.138928   2.443867   0.000000
    14  H    3.555724   3.078246   1.855035   0.000000
 Stoichiometry    C5H8O
 Framework group  C1[X(C5H8O)]
 Deg. of freedom    36
 Full point group                 C1      NOp   1
 Largest Abelian subgroup         C1      NOp   1
 Largest concise Abelian subgroup C1      NOp   1
                         Standard orientation:                         
 ---------------------------------------------------------------------
 Center     Atomic      Atomic             Coordinates (Angstroms)
 Number     Number       Type             X           Y           Z
 ---------------------------------------------------------------------
      1          6           0        2.529357    0.361330   -0.000020
      2          6           0        1.650985   -0.646172   -0.000002
      3          8           0        0.294333   -0.586301    0.000029
      4          6           0       -0.296838    0.704706    0.000021
      5          6           0       -1.792958    0.591589   -0.000009
      6          6           0       -2.486162   -0.545043   -0.000017
      7          1           0        3.588621    0.131739   -0.000045
      8          1           0        2.248176    1.407720   -0.000013
      9          1           0        1.967584   -1.685756   -0.000009
     10          1           0        0.043549    1.268971   -0.883806
     11          1           0        0.043514    1.268967    0.883863
     12          1           0       -2.309465    1.551442   -0.000020
     13          1           0       -3.572272   -0.540878   -0.000037
     14          1           0       -1.990668   -1.510251   -0.000004
 ---------------------------------------------------------------------
 Rotational constants (GHZ):     12.4419261      1.8257743      1.6080917
 Leave Link  202 at Sun Apr  2 00:31:07 2017, MaxMem=  2147483648 cpu:         0.0
 (Enter /usr/local/gaussian/g09/l301.exe)
 Standard basis: 6-31G(d) (6D, 7F)
 Ernie: Thresh=  0.10000D-02 Tol=  0.10000D-05 Strict=F.
 There are   106 symmetry adapted cartesian basis functions of A   symmetry.
 There are   106 symmetry adapted basis functions of A   symmetry.
   106 basis functions,   200 primitive gaussians,   106 cartesian basis functions
    23 alpha electrons       23 beta electrons
       nuclear repulsion energy       222.0944084055 Hartrees.
 IExCor=  402 DFT=T Ex+Corr=B3LYP ExCW=0 ScaHFX=  0.200000
 ScaDFX=  0.800000  0.720000  1.000000  0.810000 ScalE2=  1.000000  1.000000
 IRadAn=      0 IRanWt=     -1 IRanGd=            0 ICorTp=0 IEmpDi=  4
 NAtoms=   14 NActive=   14 NUniq=   14 SFac= 1.00D+00 NAtFMM=   60 NAOKFM=F Big=F
 Integral buffers will be    131072 words long.
 Raffenetti 2 integral format.
 Two-electron integral symmetry is turned on.
 Leave Link  301 at Sun Apr  2 00:31:07 2017, MaxMem=  2147483648 cpu:         0.4
 (Enter /usr/local/gaussian/g09/l302.exe)
 NPDir=0 NMtPBC=     1 NCelOv=     1 NCel=       1 NClECP=     1 NCelD=      1
         NCelK=      1 NCelE2=     1 NClLst=     1 CellRange=     0.0.
 One-electron integrals computed using PRISM.
 NBasis=   106 RedAO= T EigKep=  3.53D-03  NBF=   106
 NBsUse=   106 1.00D-06 EigRej= -1.00D+00 NBFU=   106
 Precomputing XC quadrature grid using
 IXCGrd= 4 IRadAn=           0 IRanWt=          -1 IRanGd=           0 AccXCQ= 0.00D+00.
 Generated NRdTot=       0 NPtTot=           0 NUsed=           0 NTot=          32
 NSgBfM=   106   106   106   106   106 MxSgAt=    14 MxSgA2=    14.
 Leave Link  302 at Sun Apr  2 00:31:07 2017, MaxMem=  2147483648 cpu:         1.1
 (Enter /usr/local/gaussian/g09/l303.exe)
 DipDrv:  MaxL=1.
 Leave Link  303 at Sun Apr  2 00:31:07 2017, MaxMem=  2147483648 cpu:         0.2
 (Enter /usr/local/gaussian/g09/l401.exe)
 ExpMin= 1.61D-01 ExpMax= 5.48D+03 ExpMxC= 8.25D+02 IAcc=1 IRadAn=         1 AccDes= 0.00D+00
 Harris functional with IExCor=  402 and IRadAn=       1 diagonalized for initial guess.
 HarFok:  IExCor=  402 AccDes= 0.00D+00 IRadAn=         1 IDoV= 1 UseB2=F ITyADJ=14
 ICtDFT=  3500011 ScaDFX=  1.000000  1.000000  1.000000  1.000000
 FoFCou: FMM=F IPFlag=           0 FMFlag=      100000 FMFlg1=           0
         NFxFlg=           0 DoJE=T BraDBF=F KetDBF=T FulRan=T
         wScrn=  0.000000 ICntrl=     500 IOpCl=  0 I1Cent=   200000004 NGrid=           0
         NMat0=    1 NMatS0=      1 NMatT0=    0 NMatD0=    1 NMtDS0=    0 NMtDT0=    0
 Petite list used in FoFCou.
 Harris En= -270.549079969502    
 JPrj=0 DoOrth=F DoCkMO=F.
 Leave Link  401 at Sun Apr  2 00:31:07 2017, MaxMem=  2147483648 cpu:         1.3
 (Enter /usr/local/gaussian/g09/l502.exe)
 Closed shell SCF:
 Using DIIS extrapolation, IDIIS=  1040.
 Integral symmetry usage will be decided dynamically.
 Keep R1 ints in memory in canonical form, NReq=17064446.
 IVT=       53916 IEndB=       53916 NGot=  2147483648 MDV=  2131346777
 LenX=  2131346777 LenY=  2131335100
 Requested convergence on RMS density matrix=1.00D-08 within 128 cycles.
 Requested convergence on MAX density matrix=1.00D-06.
 Requested convergence on             energy=1.00D-06.
 No special actions if energy rises.
 FoFCou: FMM=F IPFlag=           0 FMFlag=           0 FMFlg1=           0
         NFxFlg=           0 DoJE=F BraDBF=F KetDBF=F FulRan=T
         wScrn=  0.000000 ICntrl=     600 IOpCl=  0 I1Cent=           0 NGrid=           0
         NMat0=    1 NMatS0=   5671 NMatT0=    0 NMatD0=    1 NMtDS0=    0 NMtDT0=    0
 Symmetry not used in FoFCou.
 Integral accuracy reduced to 1.0D-05 until final iterations.

 Cycle   1  Pass 0  IDiag  1:
 E= -270.329748459883    
 DIIS: error= 4.36D-02 at cycle   1 NSaved=   1.
 NSaved= 1 IEnMin= 1 EnMin= -270.329748459883     IErMin= 1 ErrMin= 4.36D-02
 ErrMax= 4.36D-02  0.00D+00 EMaxC= 1.00D-01 BMatC= 1.64D-01 BMatP= 1.64D-01
 IDIUse=3 WtCom= 5.64D-01 WtEn= 4.36D-01
 Coeff-Com:  0.100D+01
 Coeff-En:   0.100D+01
 Coeff:      0.100D+01
 Gap=     0.257 Goal=   None    Shift=    0.000
 GapD=    0.257 DampG=1.000 DampE=0.500 DampFc=0.5000 IDamp=-1.
 Damping current iteration by 5.00D-01
 RMSDP=7.89D-03 MaxDP=1.71D-01              OVMax= 2.14D-01

 Cycle   2  Pass 0  IDiag  1:
 E= -270.413588404065     Delta-E=       -0.083839944182 Rises=F Damp=T
 DIIS: error= 6.76D-03 at cycle   2 NSaved=   2.
 NSaved= 2 IEnMin= 2 EnMin= -270.413588404065     IErMin= 2 ErrMin= 6.76D-03
 ErrMax= 6.76D-03  0.00D+00 EMaxC= 1.00D-01 BMatC= 8.12D-03 BMatP= 1.64D-01
 IDIUse=3 WtCom= 9.32D-01 WtEn= 6.76D-02
 Coeff-Com:  0.263D-01 0.974D+00
 Coeff-En:   0.407D-01 0.959D+00
 Coeff:      0.273D-01 0.973D+00
 Gap=     0.249 Goal=   None    Shift=    0.000
 RMSDP=1.44D-03 MaxDP=3.31D-02 DE=-8.38D-02 OVMax= 1.55D-01

 Cycle   3  Pass 0  IDiag  1:
 E= -270.500928436420     Delta-E=       -0.087340032355 Rises=F Damp=F
 DIIS: error= 6.76D-03 at cycle   3 NSaved=   3.
 NSaved= 3 IEnMin= 3 EnMin= -270.500928436420     IErMin= 2 ErrMin= 6.76D-03
 ErrMax= 6.76D-03  0.00D+00 EMaxC= 1.00D-01 BMatC= 5.98D-03 BMatP= 8.12D-03
 IDIUse=3 WtCom= 9.32D-01 WtEn= 6.76D-02
 Coeff-Com: -0.202D-01 0.459D+00 0.561D+00
 Coeff-En:   0.000D+00 0.000D+00 0.100D+01
 Coeff:     -0.188D-01 0.428D+00 0.591D+00
 Gap=     0.248 Goal=   None    Shift=    0.000
 RMSDP=1.08D-03 MaxDP=2.98D-02 DE=-8.73D-02 OVMax= 6.42D-02

 Cycle   4  Pass 0  IDiag  1:
 E= -270.504784452277     Delta-E=       -0.003856015858 Rises=F Damp=F
 DIIS: error= 4.20D-03 at cycle   4 NSaved=   4.
 NSaved= 4 IEnMin= 4 EnMin= -270.504784452277     IErMin= 4 ErrMin= 4.20D-03
 ErrMax= 4.20D-03  0.00D+00 EMaxC= 1.00D-01 BMatC= 2.37D-03 BMatP= 5.98D-03
 IDIUse=3 WtCom= 9.58D-01 WtEn= 4.20D-02
 Coeff-Com: -0.111D-01 0.758D-01 0.391D+00 0.544D+00
 Coeff-En:   0.000D+00 0.000D+00 0.315D+00 0.685D+00
 Coeff:     -0.106D-01 0.726D-01 0.388D+00 0.550D+00
 Gap=     0.249 Goal=   None    Shift=    0.000
 RMSDP=4.81D-04 MaxDP=1.05D-02 DE=-3.86D-03 OVMax= 2.55D-02

 Cycle   5  Pass 0  IDiag  1:
 E= -270.507133937151     Delta-E=       -0.002349484874 Rises=F Damp=F
 DIIS: error= 9.56D-04 at cycle   5 NSaved=   5.
 NSaved= 5 IEnMin= 5 EnMin= -270.507133937151     IErMin= 5 ErrMin= 9.56D-04
 ErrMax= 9.56D-04  0.00D+00 EMaxC= 1.00D-01 BMatC= 8.34D-05 BMatP= 2.37D-03
 IDIUse=3 WtCom= 9.90D-01 WtEn= 9.56D-03
 Coeff-Com: -0.390D-02 0.205D-01 0.185D+00 0.295D+00 0.502D+00
 Coeff-En:   0.000D+00 0.000D+00 0.000D+00 0.000D+00 0.100D+01
 Coeff:     -0.386D-02 0.203D-01 0.184D+00 0.293D+00 0.507D+00
 Gap=     0.249 Goal=   None    Shift=    0.000
 RMSDP=8.44D-05 MaxDP=2.27D-03 DE=-2.35D-03 OVMax= 2.30D-03

 Cycle   6  Pass 0  IDiag  1:
 E= -270.507192521119     Delta-E=       -0.000058583968 Rises=F Damp=F
 DIIS: error= 2.73D-04 at cycle   6 NSaved=   6.
 NSaved= 6 IEnMin= 6 EnMin= -270.507192521119     IErMin= 6 ErrMin= 2.73D-04
 ErrMax= 2.73D-04  0.00D+00 EMaxC= 1.00D-01 BMatC= 9.19D-06 BMatP= 8.34D-05
 IDIUse=3 WtCom= 9.97D-01 WtEn= 2.73D-03
 Coeff-Com: -0.682D-03 0.878D-03 0.540D-01 0.957D-01 0.288D+00 0.563D+00
 Coeff-En:   0.000D+00 0.000D+00 0.000D+00 0.000D+00 0.505D-01 0.949D+00
 Coeff:     -0.680D-03 0.876D-03 0.539D-01 0.955D-01 0.287D+00 0.564D+00
 Gap=     0.249 Goal=   None    Shift=    0.000
 RMSDP=2.17D-05 MaxDP=5.33D-04 DE=-5.86D-05 OVMax= 8.34D-04

 Cycle   7  Pass 0  IDiag  1:
 E= -270.507199231862     Delta-E=       -0.000006710743 Rises=F Damp=F
 DIIS: error= 4.50D-05 at cycle   7 NSaved=   7.
 NSaved= 7 IEnMin= 7 EnMin= -270.507199231862     IErMin= 7 ErrMin= 4.50D-05
 ErrMax= 4.50D-05  0.00D+00 EMaxC= 1.00D-01 BMatC= 2.77D-07 BMatP= 9.19D-06
 IDIUse=1 WtCom= 1.00D+00 WtEn= 0.00D+00
 Coeff-Com: -0.159D-03-0.378D-03 0.212D-01 0.380D-01 0.130D+00 0.277D+00
 Coeff-Com:  0.534D+00
 Coeff:     -0.159D-03-0.378D-03 0.212D-01 0.380D-01 0.130D+00 0.277D+00
 Coeff:      0.534D+00
 Gap=     0.249 Goal=   None    Shift=    0.000
 RMSDP=5.67D-06 MaxDP=1.86D-04 DE=-6.71D-06 OVMax= 3.54D-04

 Initial convergence to 1.0D-05 achieved.  Increase integral accuracy.
 Cycle   8  Pass 1  IDiag  1:
 E= -270.507231741935     Delta-E=       -0.000032510073 Rises=F Damp=F
 DIIS: error= 2.22D-05 at cycle   1 NSaved=   1.
 NSaved= 1 IEnMin= 1 EnMin= -270.507231741935     IErMin= 1 ErrMin= 2.22D-05
 ErrMax= 2.22D-05  0.00D+00 EMaxC= 1.00D-01 BMatC= 6.94D-08 BMatP= 6.94D-08
 IDIUse=1 WtCom= 1.00D+00 WtEn= 0.00D+00
 Coeff-Com:  0.100D+01
 Coeff:      0.100D+01
 Gap=     0.249 Goal=   None    Shift=    0.000
 RMSDP=5.67D-06 MaxDP=1.86D-04 DE=-3.25D-05 OVMax= 3.20D-04

 Cycle   9  Pass 1  IDiag  1:
 E= -270.507231609517     Delta-E=        0.000000132418 Rises=F Damp=F
 DIIS: error= 4.03D-05 at cycle   2 NSaved=   2.
 NSaved= 2 IEnMin= 1 EnMin= -270.507231741935     IErMin= 1 ErrMin= 2.22D-05
 ErrMax= 4.03D-05  0.00D+00 EMaxC= 1.00D-01 BMatC= 2.03D-07 BMatP= 6.94D-08
 IDIUse=1 WtCom= 1.00D+00 WtEn= 0.00D+00
 Coeff-Com:  0.638D+00 0.362D+00
 Coeff:      0.638D+00 0.362D+00
 Gap=     0.249 Goal=   None    Shift=    0.000
 RMSDP=3.84D-06 MaxDP=1.03D-04 DE= 1.32D-07 OVMax= 2.19D-04

 Cycle  10  Pass 1  IDiag  1:
 E= -270.507231816182     Delta-E=       -0.000000206665 Rises=F Damp=F
 DIIS: error= 4.05D-06 at cycle   3 NSaved=   3.
 NSaved= 3 IEnMin= 3 EnMin= -270.507231816182     IErMin= 3 ErrMin= 4.05D-06
 ErrMax= 4.05D-06  0.00D+00 EMaxC= 1.00D-01 BMatC= 1.75D-09 BMatP= 6.94D-08
 IDIUse=1 WtCom= 1.00D+00 WtEn= 0.00D+00
 Coeff-Com:  0.718D-01 0.976D-01 0.831D+00
 Coeff:      0.718D-01 0.976D-01 0.831D+00
 Gap=     0.249 Goal=   None    Shift=    0.000
 RMSDP=5.06D-07 MaxDP=1.26D-05 DE=-2.07D-07 OVMax= 1.64D-05

 Cycle  11  Pass 1  IDiag  1:
 E= -270.507231816930     Delta-E=       -0.000000000747 Rises=F Damp=F
 DIIS: error= 3.29D-06 at cycle   4 NSaved=   4.
 NSaved= 4 IEnMin= 4 EnMin= -270.507231816930     IErMin= 4 ErrMin= 3.29D-06
 ErrMax= 3.29D-06  0.00D+00 EMaxC= 1.00D-01 BMatC= 1.05D-09 BMatP= 1.75D-09
 IDIUse=1 WtCom= 1.00D+00 WtEn= 0.00D+00
 Coeff-Com: -0.924D-02 0.324D-01 0.525D+00 0.452D+00
 Coeff:     -0.924D-02 0.324D-01 0.525D+00 0.452D+00
 Gap=     0.249 Goal=   None    Shift=    0.000
 RMSDP=2.47D-07 MaxDP=7.30D-06 DE=-7.47D-10 OVMax= 7.51D-06

 Cycle  12  Pass 1  IDiag  1:
 E= -270.507231817707     Delta-E=       -0.000000000778 Rises=F Damp=F
 DIIS: error= 4.18D-07 at cycle   5 NSaved=   5.
 NSaved= 5 IEnMin= 5 EnMin= -270.507231817707     IErMin= 5 ErrMin= 4.18D-07
 ErrMax= 4.18D-07  0.00D+00 EMaxC= 1.00D-01 BMatC= 2.30D-11 BMatP= 1.05D-09
 IDIUse=1 WtCom= 1.00D+00 WtEn= 0.00D+00
 Coeff-Com: -0.863D-02 0.109D-01 0.211D+00 0.224D+00 0.562D+00
 Coeff:     -0.863D-02 0.109D-01 0.211D+00 0.224D+00 0.562D+00
 Gap=     0.249 Goal=   None    Shift=    0.000
 RMSDP=5.83D-08 MaxDP=8.78D-07 DE=-7.78D-10 OVMax= 2.09D-06

 Cycle  13  Pass 1  IDiag  1:
 E= -270.507231817727     Delta-E=       -0.000000000020 Rises=F Damp=F
 DIIS: error= 1.44D-07 at cycle   6 NSaved=   6.
 NSaved= 6 IEnMin= 6 EnMin= -270.507231817727     IErMin= 6 ErrMin= 1.44D-07
 ErrMax= 1.44D-07  0.00D+00 EMaxC= 1.00D-01 BMatC= 2.82D-12 BMatP= 2.30D-11
 IDIUse=1 WtCom= 1.00D+00 WtEn= 0.00D+00
 Coeff-Com: -0.396D-02 0.393D-02 0.798D-01 0.940D-01 0.318D+00 0.508D+00
 Coeff:     -0.396D-02 0.393D-02 0.798D-01 0.940D-01 0.318D+00 0.508D+00
 Gap=     0.249 Goal=   None    Shift=    0.000
 RMSDP=1.64D-08 MaxDP=4.71D-07 DE=-2.02D-11 OVMax= 8.61D-07

 Cycle  14  Pass 1  IDiag  1:
 E= -270.507231817729     Delta-E=       -0.000000000001 Rises=F Damp=F
 DIIS: error= 4.35D-08 at cycle   7 NSaved=   7.
 NSaved= 7 IEnMin= 7 EnMin= -270.507231817729     IErMin= 7 ErrMin= 4.35D-08
 ErrMax= 4.35D-08  0.00D+00 EMaxC= 1.00D-01 BMatC= 1.92D-13 BMatP= 2.82D-12
 IDIUse=1 WtCom= 1.00D+00 WtEn= 0.00D+00
 Coeff-Com: -0.875D-03 0.616D-03 0.128D-01 0.193D-01 0.823D-01 0.250D+00
 Coeff-Com:  0.636D+00
 Coeff:     -0.875D-03 0.616D-03 0.128D-01 0.193D-01 0.823D-01 0.250D+00
 Coeff:      0.636D+00
 Gap=     0.249 Goal=   None    Shift=    0.000
 RMSDP=4.33D-09 MaxDP=1.20D-07 DE=-1.48D-12 OVMax= 1.86D-07

 SCF Done:  E(RB3LYP) =  -270.507231818     A.U. after   14 cycles
            NFock= 14  Conv=0.43D-08     -V/T= 2.0096
 KE= 2.679319425590D+02 PE=-1.072941253949D+03 EE= 3.124076711670D+02
 Leave Link  502 at Sun Apr  2 00:31:10 2017, MaxMem=  2147483648 cpu:        16.1
 (Enter /usr/local/gaussian/g09/l801.exe)
 DoSCS=F DFT=T ScalE2(SS,OS)=  1.000000  1.000000
 Range of M.O.s used for correlation:     1   106
 NBasis=   106 NAE=    23 NBE=    23 NFC=     0 NFV=     0
 NROrb=    106 NOA=    23 NOB=    23 NVA=    83 NVB=    83
 Leave Link  801 at Sun Apr  2 00:31:10 2017, MaxMem=  2147483648 cpu:         0.1
 (Enter /usr/local/gaussian/g09/l1101.exe)
 Using compressed storage, NAtomX=    14.
 Will process     15 centers per pass.
 Leave Link 1101 at Sun Apr  2 00:31:10 2017, MaxMem=  2147483648 cpu:         0.9
 (Enter /usr/local/gaussian/g09/l1102.exe)
 Symmetrizing basis deriv contribution to polar:
 IMax=3 JMax=2 DiffMx= 0.00D+00
 Leave Link 1102 at Sun Apr  2 00:31:10 2017, MaxMem=  2147483648 cpu:         0.2
 (Enter /usr/local/gaussian/g09/l1110.exe)
 Forming Gx(P) for the SCF density, NAtomX=    14.
 Integral derivatives from FoFJK, PRISM(SPDF).
 Do as many integral derivatives as possible in FoFJK.
 G2DrvN: MDV=    2147483432.
 G2DrvN: will do    15 centers at a time, making    1 passes.
 Calling FoFCou, ICntrl=  3107 FMM=F I1Cent=   0 AccDes= 0.00D+00.
 FoFJK:  IHMeth= 1 ICntrl=    3107 DoSepK=F KAlg= 0 I1Cent=   0 FoldK=F
 IRaf=         0 NMat=   1 IRICut=       1 DoRegI=T DoRafI=F ISym2E= 0.
 FoFCou: FMM=F IPFlag=           0 FMFlag=      100000 FMFlg1=           0
         NFxFlg=           0 DoJE=F BraDBF=F KetDBF=F FulRan=T
         wScrn=  0.000000 ICntrl=    3107 IOpCl=  0 I1Cent=           0 NGrid=           0
         NMat0=    1 NMatS0=      1 NMatT0=    0 NMatD0=    1 NMtDS0=    0 NMtDT0=    0
 Symmetry not used in FoFCou.
 End of G2Drv F.D. properties file   721 does not exist.
 End of G2Drv F.D. properties file   722 does not exist.
 End of G2Drv F.D. properties file   788 does not exist.
 Leave Link 1110 at Sun Apr  2 00:31:15 2017, MaxMem=  2147483648 cpu:        39.7
 (Enter /usr/local/gaussian/g09/l1002.exe)
 Minotr:  Closed shell wavefunction.
          IDoAtm=11111111111111
          Direct CPHF calculation.
          Differentiating once with respect to electric field.
                with respect to dipole field.
          Differentiating once with respect to nuclear coordinates.
          Requested convergence is 1.0D-08 RMS, and 1.0D-07 maximum.
          Secondary convergence is 1.0D-12 RMS, and 1.0D-12 maximum.
          NewPWx=T KeepS1=F KeepF1=F KeepIn=T MapXYZ=F SortEE=F KeepMc=T.
          MDV=    2147483398 using IRadAn=       2.
 Generate precomputed XC quadrature information.
 Keep R1 ints in memory in canonical form, NReq=17013243.
 FoFCou: FMM=F IPFlag=           0 FMFlag=           0 FMFlg1=           0
         NFxFlg=           0 DoJE=F BraDBF=F KetDBF=F FulRan=T
         wScrn=  0.000000 ICntrl=     600 IOpCl=  0 I1Cent=           0 NGrid=           0
         NMat0=    1 NMatS0=   5671 NMatT0=    0 NMatD0=    1 NMtDS0=    0 NMtDT0=    0
 Symmetry not used in FoFCou.
          Solving linear equations simultaneously, MaxMat=       0.
          There are    45 degrees of freedom in the 1st order CPHF.  IDoFFX=6 NUNeed=     3.
     42 vectors produced by pass  0 Test12= 4.24D-15 2.22D-09 XBig12= 5.60D+01 4.42D+00.
 AX will form    42 AO Fock derivatives at one time.
     42 vectors produced by pass  1 Test12= 4.24D-15 2.22D-09 XBig12= 5.55D+00 7.28D-01.
     42 vectors produced by pass  2 Test12= 4.24D-15 2.22D-09 XBig12= 5.42D-02 4.52D-02.
     42 vectors produced by pass  3 Test12= 4.24D-15 2.22D-09 XBig12= 1.07D-04 1.55D-03.
     42 vectors produced by pass  4 Test12= 4.24D-15 2.22D-09 XBig12= 9.77D-08 5.41D-05.
     21 vectors produced by pass  5 Test12= 4.24D-15 2.22D-09 XBig12= 5.31D-11 1.20D-06.
      3 vectors produced by pass  6 Test12= 4.24D-15 2.22D-09 XBig12= 2.86D-14 2.31D-08.
 InvSVY:  IOpt=1 It=  1 EMax= 3.55D-15
 Solved reduced A of dimension   234 with    45 vectors.
 FullF1:  Do perturbations    1 to     3.
 Isotropic polarizability for W=    0.000000       54.22 Bohr**3.
 End of Minotr F.D. properties file   721 does not exist.
 End of Minotr F.D. properties file   722 does not exist.
 End of Minotr F.D. properties file   788 does not exist.
 Leave Link 1002 at Sun Apr  2 00:31:19 2017, MaxMem=  2147483648 cpu:        35.5
 (Enter /usr/local/gaussian/g09/l601.exe)
 Copying SCF densities to generalized density rwf, IOpCl= 0 IROHF=0.

 **********************************************************************

            Population analysis using the SCF density.

 **********************************************************************

 Orbital symmetries:
       Occupied  (A) (A) (A) (A) (A) (A) (A) (A) (A) (A) (A) (A)
                 (A) (A) (A) (A) (A) (A) (A) (A) (A) (A) (A)
       Virtual   (A) (A) (A) (A) (A) (A) (A) (A) (A) (A) (A) (A)
                 (A) (A) (A) (A) (A) (A) (A) (A) (A) (A) (A) (A)
                 (A) (A) (A) (A) (A) (A) (A) (A) (A) (A) (A) (A)
                 (A) (A) (A) (A) (A) (A) (A) (A) (A) (A) (A) (A)
                 (A) (A) (A) (A) (A) (A) (A) (A) (A) (A) (A) (A)
                 (A) (A) (A) (A) (A) (A) (A) (A) (A) (A) (A) (A)
                 (A) (A) (A) (A) (A) (A) (A) (A) (A) (A) (A)
 The electronic state is 1-A.
 Alpha  occ. eigenvalues --  -19.17906 -10.24615 -10.23949 -10.19346 -10.17863
 Alpha  occ. eigenvalues --  -10.16888  -1.06474  -0.79529  -0.74153  -0.69381
 Alpha  occ. eigenvalues --   -0.59693  -0.53849  -0.51332  -0.47290  -0.47231
 Alpha  occ. eigenvalues --   -0.44604  -0.41090  -0.38121  -0.35312  -0.34905
 Alpha  occ. eigenvalues --   -0.33642  -0.25713  -0.22784
 Alpha virt. eigenvalues --    0.02127   0.04230   0.10023   0.11555   0.12830
 Alpha virt. eigenvalues --    0.14679   0.16002   0.17122   0.17239   0.19284
 Alpha virt. eigenvalues --    0.21116   0.29225   0.30076   0.35683   0.36632
 Alpha virt. eigenvalues --    0.48672   0.52882   0.53950   0.55141   0.55870
 Alpha virt. eigenvalues --    0.57116   0.61259   0.63360   0.65113   0.66075
 Alpha virt. eigenvalues --    0.67645   0.69612   0.70641   0.73594   0.84178
 Alpha virt. eigenvalues --    0.85202   0.85898   0.86931   0.88587   0.90672
 Alpha virt. eigenvalues --    0.93606   0.97121   1.02630   1.06100   1.08070
 Alpha virt. eigenvalues --    1.11700   1.12098   1.18812   1.22256   1.32226
 Alpha virt. eigenvalues --    1.36303   1.43624   1.45486   1.47720   1.52006
 Alpha virt. eigenvalues --    1.68191   1.69946   1.72032   1.72498   1.83667
 Alpha virt. eigenvalues --    1.87501   1.95071   1.95360   1.98216   2.02801
 Alpha virt. eigenvalues --    2.09651   2.15860   2.16702   2.20290   2.26818
 Alpha virt. eigenvalues --    2.27621   2.30602   2.44384   2.46298   2.51216
 Alpha virt. eigenvalues --    2.59265   2.59350   2.66474   2.75090   2.87329
 Alpha virt. eigenvalues --    3.00020   3.08281   4.06395   4.10864   4.13720
 Alpha virt. eigenvalues --    4.22514   4.33899   4.45895
          Condensed to atoms (all electrons):
               1          2          3          4          5          6
     1  C    5.155655   0.619959  -0.046905  -0.011682   0.000468   0.000020
     2  C    0.619959   4.605784   0.321332  -0.037977   0.004150   0.000267
     3  O   -0.046905   0.321332   8.094740   0.237298  -0.042359  -0.003106
     4  C   -0.011682  -0.037977   0.237298   4.861421   0.389210  -0.040428
     5  C    0.000468   0.004150  -0.042359   0.389210   4.832874   0.690898
     6  C    0.000020   0.000267  -0.003106  -0.040428   0.690898   4.973701
     7  H    0.361332  -0.014600   0.002680   0.000053  -0.000007   0.000000
     8  H    0.370639  -0.036640  -0.007344   0.004568   0.000041  -0.000004
     9  H   -0.063248   0.385914  -0.048599   0.005396  -0.000169  -0.000020
    10  H    0.007521  -0.004048  -0.037527   0.354512  -0.039288   0.000116
    11  H    0.007520  -0.004047  -0.037527   0.354514  -0.039289   0.000116
    12  H    0.000008  -0.000127   0.002398  -0.051351   0.362474  -0.040222
    13  H    0.000000  -0.000001   0.000170   0.005180  -0.027324   0.365310
    14  H    0.000039  -0.000079   0.011696  -0.016088  -0.031242   0.370642
               7          8          9         10         11         12
     1  C    0.361332   0.370639  -0.063248   0.007521   0.007520   0.000008
     2  C   -0.014600  -0.036640   0.385914  -0.004048  -0.004047  -0.000127
     3  O    0.002680  -0.007344  -0.048599  -0.037527  -0.037527   0.002398
     4  C    0.000053   0.004568   0.005396   0.354512   0.354514  -0.051351
     5  C   -0.000007   0.000041  -0.000169  -0.039288  -0.039289   0.362474
     6  C    0.000000  -0.000004  -0.000020   0.000116   0.000116  -0.040222
     7  H    0.549021  -0.037340  -0.003943  -0.000051  -0.000051   0.000000
     8  H   -0.037340   0.557923   0.004591   0.001118   0.001118   0.000020
     9  H   -0.003943   0.004591   0.577541  -0.000180  -0.000180   0.000005
    10  H   -0.000051   0.001118  -0.000180   0.626322  -0.060496   0.001080
    11  H   -0.000051   0.001118  -0.000180  -0.060496   0.626321   0.001081
    12  H    0.000000   0.000020   0.000005   0.001080   0.001081   0.594999
    13  H    0.000000   0.000000  -0.000001  -0.000103  -0.000103  -0.008557
    14  H    0.000000   0.000002   0.000005   0.000396   0.000396   0.005741
              13         14
     1  C    0.000000   0.000039
     2  C   -0.000001  -0.000079
     3  O    0.000170   0.011696
     4  C    0.005180  -0.016088
     5  C   -0.027324  -0.031242
     6  C    0.365310   0.370642
     7  H    0.000000   0.000000
     8  H    0.000000   0.000002
     9  H   -0.000001   0.000005
    10  H   -0.000103   0.000396
    11  H   -0.000103   0.000396
    12  H   -0.008557   0.005741
    13  H    0.567037  -0.041171
    14  H   -0.041171   0.539524
 Mulliken charges:
               1
     1  C   -0.401328
     2  C    0.160114
     3  O   -0.446946
     4  C   -0.054628
     5  C   -0.100437
     6  C   -0.317290
     7  H    0.142906
     8  H    0.141309
     9  H    0.142889
    10  H    0.150628
    11  H    0.150629
    12  H    0.132450
    13  H    0.139563
    14  H    0.160140
 Sum of Mulliken charges =   0.00000
 Mulliken charges with hydrogens summed into heavy atoms:
               1
     1  C   -0.117113
     2  C    0.303003
     3  O   -0.446946
     4  C    0.246629
     5  C    0.032013
     6  C   -0.017587
 APT charges:
               1
     1  C   -0.309805
     2  C    0.644588
     3  O   -0.833170
     4  C    0.494442
     5  C    0.052836
     6  C   -0.101594
     7  H    0.040122
     8  H    0.054056
     9  H    0.006357
    10  H   -0.060054
    11  H   -0.060057
    12  H   -0.006721
    13  H    0.020298
    14  H    0.058701
 Sum of APT charges =   0.00000
 APT charges with hydrogens summed into heavy atoms:
               1
     1  C   -0.215627
     2  C    0.650945
     3  O   -0.833170
     4  C    0.374331
     5  C    0.046115
     6  C   -0.022594
 Electronic spatial extent (au):  <R**2>=            735.9750
 Charge=              0.0000 electrons
 Dipole moment (field-independent basis, Debye):
    X=             -0.0844    Y=              0.8535    Z=              0.0000  Tot=              0.8576
 Quadrupole moment (field-independent basis, Debye-Ang):
   XX=            -34.5257   YY=            -33.4993   ZZ=            -39.5086
   XY=             -1.4202   XZ=              0.0000   YZ=              0.0000
 Traceless Quadrupole moment (field-independent basis, Debye-Ang):
   XX=              1.3188   YY=              2.3453   ZZ=             -3.6641
   XY=             -1.4202   XZ=              0.0000   YZ=              0.0000
 Octapole moment (field-independent basis, Debye-Ang**2):
  XXX=             -1.5651  YYY=             -2.9416  ZZZ=              0.0003  XYY=              0.9990
  XXY=             -3.9402  XXZ=             -0.0004  XZZ=             -0.1159  YZZ=             -0.2164
  YYZ=              0.0000  XYZ=              0.0000
 Hexadecapole moment (field-independent basis, Debye-Ang**3):
 XXXX=           -746.2481 YYYY=           -143.9943 ZZZZ=            -46.1070 XXXY=             -6.9395
 XXXZ=             -0.0002 YYYX=             -6.2353 YYYZ=              0.0000 ZZZX=              0.0001
 ZZZY=              0.0000 XXYY=           -148.6393 XXZZ=           -160.6592 YYZZ=            -33.8529
 XXYZ=              0.0000 YYXZ=              0.0000 ZZXY=             -1.2321
 N-N= 2.220944084055D+02 E-N=-1.072941254477D+03  KE= 2.679319425590D+02
  Exact polarizability:  75.884   8.562  59.349   0.000   0.000  27.441
 Approx polarizability:  94.910  22.312  95.112   0.000   0.000  38.714
 No NMR shielding tensors so no spin-rotation constants.
 Leave Link  601 at Sun Apr  2 00:31:19 2017, MaxMem=  2147483648 cpu:         0.8
 (Enter /usr/local/gaussian/g09/l701.exe)
 Compute integral second derivatives.
 ... and contract with generalized density number  0.
 Leave Link  701 at Sun Apr  2 00:31:19 2017, MaxMem=  2147483648 cpu:         1.1
 (Enter /usr/local/gaussian/g09/l702.exe)
 L702 exits ... SP integral derivatives will be done elsewhere.
 Leave Link  702 at Sun Apr  2 00:31:19 2017, MaxMem=  2147483648 cpu:         0.1
 (Enter /usr/local/gaussian/g09/l703.exe)
 Compute integral second derivatives, UseDBF=F ICtDFT=           0.
 Integral derivatives from FoFJK, PRISM(SPDF).
 Calling FoFJK, ICntrl=    100127 FMM=F ISym2X=0 I1Cent= 0 IOpClX= 0 NMat=1 NMatS=1 NMatT=0.
 FoFJK:  IHMeth= 1 ICntrl=  100127 DoSepK=F KAlg= 0 I1Cent=   0 FoldK=F
 IRaf=         0 NMat=   1 IRICut=       1 DoRegI=T DoRafI=F ISym2E= 0.
 FoFCou: FMM=F IPFlag=           0 FMFlag=      100000 FMFlg1=         800
         NFxFlg=           0 DoJE=F BraDBF=F KetDBF=F FulRan=T
         wScrn=  0.000000 ICntrl=  100127 IOpCl=  0 I1Cent=           0 NGrid=           0
         NMat0=    1 NMatS0=      1 NMatT0=    0 NMatD0=    1 NMtDS0=    0 NMtDT0=    0
 Symmetry not used in FoFCou.
 Leave Link  703 at Sun Apr  2 00:31:26 2017, MaxMem=  2147483648 cpu:        48.9
 (Enter /usr/local/gaussian/g09/l716.exe)
 Dipole        =-3.32011078D-02 3.35778153D-01-6.40445690D-06
 Polarizability= 7.58842225D+01 8.56217689D+00 5.93489516D+01
                -1.43647572D-04 2.62635884D-05 2.74414938D+01
 Full mass-weighted force constant matrix:
 Low frequencies ---   -0.0010   -0.0007    0.0006    5.5691   16.9750   23.9362
 Low frequencies ---   69.9236  166.0920  185.6623
 Diagonal vibrational polarizability:
        7.7038024       1.4745371       9.6112348
 Harmonic frequencies (cm**-1), IR intensities (KM/Mole), Raman scattering
 activities (A**4/AMU), depolarization ratios for plane and unpolarized
 incident light, reduced masses (AMU), force constants (mDyne/A),
 and normal coordinates:
                      1                      2                      3
                      A                      A                      A
 Frequencies --     69.9135               166.0863               185.6614
 Red. masses --      4.3389                 1.6597                 3.2319
 Frc consts  --      0.0125                 0.0270                 0.0656
 IR Inten    --      0.2569                 0.0642                 0.2462
  Atom  AN      X      Y      Z        X      Y      Z        X      Y      Z
     1   6     0.00   0.00   0.27     0.00   0.00  -0.01    -0.08   0.17   0.00
     2   6     0.00   0.00  -0.04     0.00   0.00   0.11     0.09   0.02   0.00
     3   8     0.00   0.00  -0.29     0.00   0.00  -0.06     0.07  -0.18   0.00
     4   6     0.00   0.00  -0.19     0.00   0.00  -0.11     0.06  -0.18   0.00
     5   6     0.00   0.00  -0.03     0.00   0.00   0.16     0.05   0.00   0.00
     6   6     0.00   0.00   0.27     0.00   0.00  -0.07    -0.20   0.16   0.00
     7   1     0.00   0.00   0.46     0.00   0.00   0.17    -0.04   0.35   0.00
     8   1     0.00   0.00   0.32     0.00   0.00  -0.30    -0.25   0.12   0.00
     9   1     0.00   0.00  -0.10     0.00   0.00   0.36     0.26   0.07   0.00
    10   1    -0.08   0.04  -0.19    -0.15  -0.10  -0.23     0.08  -0.19   0.00
    11   1     0.08  -0.04  -0.19     0.15   0.10  -0.23     0.08  -0.19   0.00
    12   1     0.00   0.00  -0.14     0.00   0.00   0.54     0.23   0.10   0.00
    13   1     0.00   0.00   0.40     0.00   0.00   0.14    -0.20   0.41   0.00
    14   1     0.00   0.00   0.38     0.00   0.00  -0.45    -0.42   0.04   0.00
                      4                      5                      6
                      A                      A                      A
 Frequencies --    255.9422               284.2279               553.5629
 Red. masses --      1.7923                 3.8421                 2.7945
 Frc consts  --      0.0692                 0.1829                 0.5045
 IR Inten    --      7.3658                 1.4580                 1.8538
  Atom  AN      X      Y      Z        X      Y      Z        X      Y      Z
     1   6     0.00   0.00   0.08     0.28  -0.08   0.00    -0.13  -0.04   0.00
     2   6     0.00   0.00  -0.12     0.12   0.06   0.00    -0.01  -0.11   0.00
     3   8     0.00   0.00   0.15     0.10   0.10   0.00     0.05   0.17   0.00
     4   6     0.00   0.00  -0.13    -0.11   0.01   0.00     0.11   0.13   0.00
     5   6     0.00   0.00   0.04    -0.13  -0.10   0.00     0.14  -0.17   0.00
     6   6     0.00   0.00  -0.02    -0.28  -0.01   0.00    -0.08  -0.05   0.00
     7   1     0.00   0.00  -0.19     0.24  -0.28   0.00    -0.07   0.26   0.00
     8   1     0.00   0.00   0.50     0.46  -0.02   0.00    -0.42  -0.12   0.00
     9   1     0.00   0.00  -0.50     0.01   0.03   0.00    -0.12  -0.15   0.00
    10   1    -0.05  -0.25  -0.31    -0.20   0.07   0.00     0.02   0.19  -0.01
    11   1     0.05   0.25  -0.31    -0.20   0.07   0.00     0.02   0.19   0.01
    12   1     0.00   0.00   0.20    -0.09  -0.07   0.00     0.09  -0.20   0.00
    13   1     0.00   0.00   0.11    -0.28   0.16   0.00    -0.09   0.37   0.00
    14   1     0.00   0.00  -0.18    -0.44  -0.09   0.00    -0.47  -0.25   0.00
                      7                      8                      9
                      A                      A                      A
 Frequencies --    573.5155               619.5932               716.9076
 Red. masses --      1.2465                 2.3572                 1.5628
 Frc consts  --      0.2416                 0.5332                 0.4732
 IR Inten    --      8.8258                 0.1599                 0.4809
  Atom  AN      X      Y      Z        X      Y      Z        X      Y      Z
     1   6     0.00   0.00   0.01     0.03   0.03   0.00     0.00   0.00  -0.04
     2   6     0.00   0.00  -0.02    -0.16   0.18   0.00     0.00   0.00   0.20
     3   8     0.00   0.00  -0.02    -0.12  -0.03   0.00     0.00   0.00  -0.08
     4   6     0.00   0.00   0.01     0.07  -0.03   0.00     0.00   0.00  -0.02
     5   6     0.00   0.00   0.14     0.16  -0.11   0.00     0.00   0.00   0.02
     6   6     0.00   0.00  -0.04     0.01  -0.02   0.00     0.00   0.00   0.00
     7   1     0.00   0.00   0.07    -0.08  -0.48   0.00     0.00   0.00  -0.81
     8   1     0.00   0.00  -0.05     0.54   0.17   0.00     0.00   0.00   0.50
     9   1     0.00   0.00   0.00    -0.07   0.20   0.00     0.00   0.00  -0.20
    10   1    -0.26  -0.14  -0.18     0.11  -0.05   0.00     0.00   0.03   0.00
    11   1     0.26   0.14  -0.18     0.11  -0.05   0.00     0.00  -0.03   0.00
    12   1     0.00   0.00  -0.40     0.15  -0.12   0.00     0.00   0.00  -0.03
    13   1     0.00   0.00  -0.65     0.01   0.30   0.00     0.00   0.00  -0.07
    14   1     0.00   0.00   0.40    -0.29  -0.17   0.00     0.00   0.00   0.04
                     10                     11                     12
                      A                      A                      A
 Frequencies --    817.1709               934.0505               948.1146
 Red. masses --      1.3258                 2.9311                 1.3344
 Frc consts  --      0.5216                 1.5067                 0.7068
 IR Inten    --     57.9052                 2.6965                33.6969
  Atom  AN      X      Y      Z        X      Y      Z        X      Y      Z
     1   6     0.00   0.00   0.15    -0.01   0.04   0.00     0.00   0.00   0.00
     2   6     0.00   0.00  -0.05     0.02  -0.03   0.00     0.00   0.00  -0.01
     3   8     0.00   0.00   0.00    -0.02  -0.14   0.00     0.00   0.00   0.01
     4   6     0.00   0.00   0.00     0.22   0.24   0.00     0.00   0.00  -0.02
     5   6     0.00   0.00  -0.01    -0.14   0.04   0.00     0.00   0.00  -0.05
     6   6     0.00   0.00   0.00    -0.10  -0.09   0.00     0.00   0.00   0.16
     7   1     0.00   0.00  -0.69    -0.05  -0.13   0.00     0.00   0.00  -0.01
     8   1     0.00   0.00  -0.70     0.21   0.10   0.00     0.00   0.00   0.01
     9   1     0.00   0.00   0.02     0.24   0.03   0.00     0.00   0.00   0.03
    10   1    -0.02   0.01   0.00     0.44   0.06  -0.02     0.04   0.03   0.02
    11   1     0.02  -0.01   0.00     0.44   0.06   0.02    -0.04  -0.03   0.02
    12   1     0.00   0.00   0.01    -0.47  -0.13   0.00     0.00   0.00   0.08
    13   1     0.00   0.00   0.02    -0.11  -0.20   0.00     0.00   0.00  -0.74
    14   1     0.00   0.00   0.00    -0.08  -0.08   0.00     0.00   0.00  -0.64
                     13                     14                     15
                      A                      A                      A
 Frequencies --    951.7877               997.0617              1031.8866
 Red. masses --      2.2153                 1.1505                 1.0514
 Frc consts  --      1.1824                 0.6739                 0.6596
 IR Inten    --     12.6439                13.1147                 9.4053
  Atom  AN      X      Y      Z        X      Y      Z        X      Y      Z
     1   6    -0.13  -0.01   0.00     0.00   0.00  -0.01     0.00   0.00   0.00
     2   6    -0.07   0.02   0.00     0.00   0.00   0.11     0.00   0.00  -0.01
     3   8     0.14   0.12   0.00     0.00   0.00  -0.01     0.00   0.00  -0.01
     4   6     0.12  -0.11   0.00     0.00   0.00   0.03     0.00   0.00   0.04
     5   6    -0.04   0.00   0.00     0.00   0.00  -0.02     0.00   0.00   0.04
     6   6    -0.11   0.00   0.00     0.00   0.00   0.01     0.00   0.00   0.01
     7   1    -0.23  -0.46   0.00     0.00   0.00   0.26     0.00   0.00  -0.03
     8   1     0.24   0.08   0.00     0.00   0.00  -0.41     0.00   0.00   0.05
     9   1    -0.04   0.03   0.00     0.00   0.00  -0.85     0.00   0.00   0.08
    10   1     0.10  -0.07   0.01    -0.07  -0.07  -0.04    -0.12  -0.06  -0.04
    11   1     0.10  -0.07  -0.01     0.07   0.07  -0.04     0.12   0.06  -0.04
    12   1     0.24   0.15   0.00     0.00   0.00  -0.02     0.00   0.00  -0.72
    13   1    -0.11  -0.53   0.00     0.00   0.00   0.03     0.00   0.00   0.36
    14   1     0.34   0.22   0.00     0.00   0.00  -0.09     0.00   0.00  -0.55
                     16                     17                     18
                      A                      A                      A
 Frequencies --   1034.9286              1058.8518              1124.0389
 Red. masses --      1.8712                 1.6665                 1.8289
 Frc consts  --      1.1808                 1.1008                 1.3614
 IR Inten    --     38.8413                12.1265                16.0968
  Atom  AN      X      Y      Z        X      Y      Z        X      Y      Z
     1   6    -0.13   0.01   0.00     0.00   0.00   0.00    -0.01   0.02   0.00
     2   6     0.03  -0.04   0.00     0.00   0.00  -0.01     0.05  -0.04   0.00
     3   8     0.14  -0.05   0.00     0.00   0.00  -0.05    -0.05  -0.08   0.00
     4   6    -0.12   0.06   0.00     0.00   0.00   0.19    -0.07   0.14   0.00
     5   6    -0.01   0.02   0.00     0.00   0.00  -0.14     0.12  -0.09   0.00
     6   6     0.09   0.01   0.00     0.00   0.00   0.02    -0.09   0.04   0.00
     7   1    -0.25  -0.53   0.00     0.00   0.00  -0.08    -0.03  -0.09   0.00
     8   1     0.34   0.13   0.00     0.00   0.00   0.13     0.14   0.06   0.00
     9   1     0.29   0.03   0.00     0.00   0.00   0.19     0.24   0.01   0.00
    10   1    -0.18   0.08   0.00    -0.38  -0.42  -0.24    -0.26   0.22  -0.02
    11   1    -0.18   0.08   0.00     0.38   0.42  -0.24    -0.26   0.22   0.02
    12   1    -0.20  -0.08   0.00     0.00   0.00   0.34     0.49   0.11   0.00
    13   1     0.09   0.41   0.00     0.00   0.00   0.06    -0.08  -0.40   0.00
    14   1    -0.21  -0.14   0.00     0.00   0.00   0.00     0.35   0.26   0.00
                     19                     20                     21
                      A                      A                      A
 Frequencies --   1251.5832              1272.0589              1334.3006
 Red. masses --      4.0157                 1.0715                 1.2824
 Frc consts  --      3.7062                 1.0215                 1.3452
 IR Inten    --    185.1090                 0.5445                 2.3721
  Atom  AN      X      Y      Z        X      Y      Z        X      Y      Z
     1   6    -0.03   0.17   0.00     0.00   0.00   0.00     0.00  -0.01   0.00
     2   6     0.23  -0.26   0.00     0.00   0.00   0.00     0.00   0.01   0.00
     3   8    -0.22   0.15   0.00     0.00   0.00   0.05     0.00  -0.01   0.00
     4   6     0.06  -0.13   0.00     0.00   0.00  -0.03     0.00   0.02   0.00
     5   6    -0.03   0.02   0.00     0.00   0.00  -0.04    -0.06   0.08   0.00
     6   6     0.02  -0.02   0.00     0.00   0.00   0.00     0.02  -0.12   0.00
     7   1    -0.08  -0.21   0.00     0.00   0.00  -0.01     0.00   0.00   0.00
     8   1     0.67   0.36   0.00     0.00   0.00   0.04    -0.04  -0.02   0.00
     9   1     0.08  -0.31   0.00     0.00   0.00  -0.02     0.12   0.05   0.00
    10   1    -0.02   0.00   0.03    -0.54   0.45   0.03     0.03   0.04   0.01
    11   1    -0.02   0.00  -0.03     0.54  -0.45   0.03     0.03   0.04  -0.01
    12   1     0.00   0.04   0.00     0.00   0.00   0.05     0.69   0.50   0.00
    13   1     0.02   0.06   0.00     0.00   0.00   0.04     0.01  -0.02   0.00
    14   1    -0.08  -0.07   0.00     0.00   0.00  -0.01    -0.35  -0.31   0.00
                     22                     23                     24
                      A                      A                      A
 Frequencies --   1369.7869              1428.2503              1467.2639
 Red. masses --      1.2985                 1.3485                 1.2722
 Frc consts  --      1.4355                 1.6208                 1.6136
 IR Inten    --     64.2961                25.3832                 5.4802
  Atom  AN      X      Y      Z        X      Y      Z        X      Y      Z
     1   6    -0.01  -0.08   0.00     0.01   0.02   0.00     0.01   0.02   0.00
     2   6     0.04   0.05   0.00     0.02   0.03   0.00     0.05   0.01   0.00
     3   8    -0.07   0.05   0.00    -0.01  -0.05   0.00    -0.01   0.01   0.00
     4   6     0.05  -0.05   0.00     0.15  -0.04   0.00    -0.08   0.00   0.00
     5   6    -0.01   0.00   0.00    -0.02   0.04   0.00     0.10   0.05   0.00
     6   6     0.00   0.01   0.00     0.02   0.00   0.00     0.00   0.04   0.00
     7   1    -0.04  -0.16   0.00    -0.04  -0.21   0.00    -0.07  -0.31   0.00
     8   1    -0.30  -0.17   0.00    -0.18  -0.03   0.00    -0.26  -0.06   0.00
     9   1     0.84   0.31   0.00    -0.35  -0.07   0.00    -0.09  -0.03   0.00
    10   1    -0.09   0.04   0.00    -0.53   0.27  -0.07     0.16  -0.06   0.05
    11   1    -0.09   0.04   0.00    -0.53   0.27   0.07     0.16  -0.06  -0.05
    12   1    -0.12  -0.06   0.00    -0.12  -0.01   0.00    -0.17  -0.10   0.00
    13   1     0.00   0.01   0.00     0.01  -0.12   0.00    -0.02  -0.65   0.00
    14   1     0.02   0.02   0.00    -0.16  -0.09   0.00    -0.47  -0.22   0.00
                     25                     26                     27
                      A                      A                      A
 Frequencies --   1468.4076              1530.6054              1691.0429
 Red. masses --      1.1740                 1.0769                 4.2229
 Frc consts  --      1.4914                 1.4864                 7.1150
 IR Inten    --      3.7075                15.2686               162.5529
  Atom  AN      X      Y      Z        X      Y      Z        X      Y      Z
     1   6    -0.02  -0.04   0.00     0.00  -0.01   0.00    -0.22  -0.23   0.00
     2   6    -0.08  -0.03   0.00     0.00   0.01   0.00     0.33   0.25   0.00
     3   8     0.02   0.01   0.00     0.00  -0.02   0.00    -0.06  -0.02   0.00
     4   6     0.02  -0.03   0.00    -0.03  -0.07   0.00    -0.01   0.01   0.00
     5   6     0.03   0.04   0.00     0.00   0.00   0.00     0.04   0.04   0.00
     6   6     0.01   0.03   0.00     0.00  -0.01   0.00    -0.03  -0.05   0.00
     7   1     0.12   0.58   0.00     0.00   0.02   0.00    -0.12   0.39   0.00
     8   1     0.50   0.12   0.00     0.01  -0.01   0.00     0.48  -0.08   0.00
     9   1     0.25   0.07   0.00    -0.04   0.01   0.00    -0.53   0.05   0.00
    10   1    -0.15   0.07   0.00     0.20   0.52   0.43     0.03  -0.09  -0.06
    11   1    -0.15   0.07   0.00     0.20   0.52  -0.43     0.03  -0.09   0.06
    12   1    -0.15  -0.06   0.00    -0.03  -0.01   0.00    -0.02   0.01   0.00
    13   1     0.00  -0.35   0.00     0.00   0.05   0.00    -0.04   0.06   0.00
    14   1    -0.29  -0.13   0.00     0.05   0.02   0.00     0.08   0.00   0.00
                     28                     29                     30
                      A                      A                      A
 Frequencies --   1743.0691              2989.2278              3012.7620
 Red. masses --      4.6831                 1.0553                 1.1054
 Frc consts  --      8.3833                 5.5555                 5.9114
 IR Inten    --      1.9459                23.3298                42.3852
  Atom  AN      X      Y      Z        X      Y      Z        X      Y      Z
     1   6     0.03   0.03   0.00     0.00   0.00   0.00     0.00   0.00   0.00
     2   6    -0.05  -0.04   0.00     0.00   0.00   0.00     0.00   0.00   0.00
     3   8     0.02   0.01   0.00     0.00   0.00   0.00     0.00   0.00   0.00
     4   6    -0.05  -0.04   0.00     0.04   0.05   0.00     0.00   0.00   0.09
     5   6     0.28   0.32   0.00     0.00   0.00   0.00     0.00   0.00   0.00
     6   6    -0.21  -0.31   0.00     0.00   0.00   0.00     0.00   0.00   0.00
     7   1     0.02  -0.03   0.00     0.00   0.00   0.00     0.00   0.00   0.00
     8   1    -0.05   0.02   0.00    -0.01   0.02   0.00     0.00   0.00   0.00
     9   1     0.09   0.00   0.00     0.00  -0.01   0.00     0.00   0.00   0.00
    10   1    -0.16  -0.02  -0.03    -0.21  -0.34   0.58     0.23   0.36  -0.56
    11   1    -0.16  -0.02   0.03    -0.21  -0.34  -0.58    -0.23  -0.36  -0.56
    12   1    -0.42  -0.01   0.00    -0.01   0.03   0.00     0.00   0.00   0.00
    13   1    -0.25   0.35   0.00    -0.01   0.00   0.00     0.00   0.00   0.00
    14   1     0.49   0.00   0.00     0.00  -0.01   0.00     0.00   0.00   0.00
                     31                     32                     33
                      A                      A                      A
 Frequencies --   3159.7776              3181.2868              3190.1462
 Red. masses --      1.0815                 1.0684                 1.0545
 Frc consts  --      6.3617                 6.3710                 6.3231
 IR Inten    --     15.0668                 9.1570                 4.2320
  Atom  AN      X      Y      Z        X      Y      Z        X      Y      Z
     1   6     0.00   0.00   0.00     0.00   0.00   0.00    -0.04  -0.04   0.00
     2   6     0.00   0.00   0.00     0.00   0.00   0.00     0.01  -0.02   0.00
     3   8     0.00   0.00   0.00     0.00   0.00   0.00     0.00   0.00   0.00
     4   6     0.00   0.00   0.00     0.00   0.00   0.00     0.00   0.00   0.00
     5   6     0.04  -0.07   0.00    -0.01   0.03   0.00     0.00   0.00   0.00
     6   6    -0.02  -0.01   0.00    -0.04  -0.05   0.00     0.00   0.00   0.00
     7   1     0.00   0.00   0.00    -0.01   0.00   0.00     0.69  -0.16   0.00
     8   1     0.00   0.00   0.00     0.00  -0.01   0.00    -0.17   0.59   0.00
     9   1     0.00   0.01   0.00     0.00   0.00   0.00    -0.10   0.33   0.00
    10   1     0.01   0.01  -0.02    -0.01  -0.01   0.01     0.00   0.00   0.00
    11   1     0.01   0.01   0.02    -0.01  -0.01  -0.01     0.00   0.00   0.00
    12   1    -0.45   0.82   0.00     0.16  -0.29   0.00     0.00  -0.01   0.00
    13   1     0.31  -0.01   0.00     0.72  -0.01   0.00     0.01   0.00   0.00
    14   1    -0.08   0.14   0.00    -0.29   0.54   0.00     0.00   0.01   0.00
                     34                     35                     36
                      A                      A                      A
 Frequencies --   3207.9903              3263.8085              3265.2039
 Red. masses --      1.0933                 1.1160                 1.1081
 Frc consts  --      6.6292                 7.0041                 6.9608
 IR Inten    --     11.3839                12.6937                12.0904
  Atom  AN      X      Y      Z        X      Y      Z        X      Y      Z
     1   6     0.01   0.03   0.00     0.00   0.00   0.00    -0.06   0.06   0.00
     2   6     0.02  -0.08   0.00     0.00   0.00   0.00     0.00   0.01   0.00
     3   8     0.00   0.00   0.00     0.00   0.00   0.00     0.00   0.00   0.00
     4   6     0.00   0.00   0.00     0.00   0.00   0.00     0.00   0.00   0.00
     5   6     0.00   0.00   0.00     0.00  -0.01   0.00     0.00   0.00   0.00
     6   6     0.00   0.00   0.00     0.08  -0.06   0.00     0.01   0.00   0.00
     7   1    -0.16   0.04   0.00    -0.05   0.01   0.00     0.67  -0.14   0.00
     8   1     0.09  -0.32   0.00    -0.01   0.05   0.00     0.18  -0.69   0.00
     9   1    -0.26   0.88   0.00     0.00   0.00   0.00     0.04  -0.13   0.00
    10   1     0.00  -0.01   0.01     0.00   0.00   0.00     0.00   0.00   0.01
    11   1     0.00  -0.01  -0.01     0.00   0.00   0.00     0.00   0.00  -0.01
    12   1     0.00   0.00   0.00    -0.04   0.07   0.00     0.00   0.01   0.00
    13   1    -0.01   0.00   0.00    -0.61   0.00   0.00    -0.05   0.00   0.00
    14   1     0.00   0.00   0.00    -0.35   0.69   0.00    -0.02   0.05   0.00

 -------------------
 - Thermochemistry -
 -------------------
 Temperature   298.150 Kelvin.  Pressure   1.00000 Atm.
 Atom     1 has atomic number  6 and mass  13.00335
 Atom     2 has atomic number  6 and mass  12.00000
 Atom     3 has atomic number  8 and mass  15.99491
 Atom     4 has atomic number  6 and mass  12.00000
 Atom     5 has atomic number  6 and mass  12.00000
 Atom     6 has atomic number  6 and mass  12.00000
 Atom     7 has atomic number  1 and mass   1.00783
 Atom     8 has atomic number  1 and mass   1.00783
 Atom     9 has atomic number  1 and mass   1.00783
 Atom    10 has atomic number  1 and mass   1.00783
 Atom    11 has atomic number  1 and mass   1.00783
 Atom    12 has atomic number  1 and mass   1.00783
 Atom    13 has atomic number  1 and mass   1.00783
 Atom    14 has atomic number  1 and mass   1.00783
 Molecular mass:    85.06087 amu.
 Principal axes and moments of inertia in atomic units:
                           1         2         3
     Eigenvalues --   145.05320 988.479931122.28747
           X            0.99999   0.00343   0.00000
           Y           -0.00343   0.99999   0.00000
           Z            0.00000   0.00000   1.00000
 This molecule is an asymmetric top.
 Rotational symmetry number  1.
 Rotational temperatures (Kelvin)      0.59712     0.08762     0.07718
 Rotational constants (GHZ):          12.44193     1.82577     1.60809
 Zero-point vibrational energy     311925.5 (Joules/Mol)
                                   74.55199 (Kcal/Mol)
 Warning -- explicit consideration of   8 degrees of freedom as
           vibrations may cause significant error
 Vibrational temperatures:    100.59   238.96   267.13   368.24   408.94
          (Kelvin)            796.45   825.16   891.46  1031.47  1175.73
                             1343.89  1364.12  1369.41  1434.55  1484.65
                             1489.03  1523.45  1617.24  1800.75  1830.21
                             1919.76  1970.82  2054.93  2111.06  2112.71
                             2202.20  2433.03  2507.88  4300.83  4334.69
                             4546.21  4577.16  4589.90  4615.58  4695.89
                             4697.89
 
 Zero-point correction=                           0.118806 (Hartree/Particle)
 Thermal correction to Energy=                    0.125603
 Thermal correction to Enthalpy=                  0.126547
 Thermal correction to Gibbs Free Energy=         0.088176
 Sum of electronic and zero-point Energies=           -270.388426
 Sum of electronic and thermal Energies=              -270.381629
 Sum of electronic and thermal Enthalpies=            -270.380684
 Sum of electronic and thermal Free Energies=         -270.419056
 
                     E (Thermal)             CV                S
                      KCal/Mol        Cal/Mol-Kelvin    Cal/Mol-Kelvin
 Total                   78.817             23.714             80.759
 Electronic               0.000              0.000              0.000
 Translational            0.889              2.981             39.236
 Rotational               0.889              2.981             26.578
 Vibrational             77.040             17.752             14.945
 Vibration     1          0.598              1.968              4.156
 Vibration     2          0.624              1.884              2.479
 Vibration     3          0.632              1.859              2.271
 Vibration     4          0.666              1.753              1.689
 Vibration     5          0.683              1.703              1.508
 Vibration     6          0.909              1.132              0.537
 Vibration     7          0.930              1.089              0.498
 Vibration     8          0.980              0.991              0.417
                       Q            Log10(Q)             Ln(Q)
 Total Bot       0.276622D-40        -40.558113        -93.388506
 Total V=0       0.122690D+15         14.088808         32.440678
 Vib (Bot)       0.624728D-53        -53.204309       -122.507449
 Vib (Bot)    1  0.295001D+01          0.469823          1.081808
 Vib (Bot)    2  0.121491D+01          0.084546          0.194674
 Vib (Bot)    3  0.107967D+01          0.033291          0.076654
 Vib (Bot)    4  0.760394D+00         -0.118961         -0.273919
 Vib (Bot)    5  0.674918D+00         -0.170749         -0.393164
 Vib (Bot)    6  0.282525D+00         -0.548943         -1.263988
 Vib (Bot)    7  0.267422D+00         -0.572803         -1.318928
 Vib (Bot)    8  0.236128D+00         -0.626852         -1.443380
 Vib (V=0)       0.277084D+02          1.442612          3.321736
 Vib (V=0)    1  0.349208D+01          0.543084          1.250498
 Vib (V=0)    2  0.181378D+01          0.258585          0.595413
 Vib (V=0)    3  0.168983D+01          0.227842          0.524625
 Vib (V=0)    4  0.141005D+01          0.149236          0.343628
 Vib (V=0)    5  0.133995D+01          0.127088          0.292631
 Vib (V=0)    6  0.107430D+01          0.031126          0.071669
 Vib (V=0)    7  0.106702D+01          0.028174          0.064872
 Vib (V=0)    8  0.105295D+01          0.022409          0.051598
 Electronic      0.100000D+01          0.000000          0.000000
 Translational   0.308354D+08          7.489050         17.244175
 Rotational      0.143597D+06          5.157146         11.874768
 
                                                        ground state structure
                                                             IR Spectrum
 
     333333    32                                                1 1     111 1 1 1 11    1111                                        
     222111    09                                                7 6     544 4 3 3 22    10009999    8   7  6 55         2 2 11      
     660986    18                                                4 9     366 2 7 3 75    25339543    1   1  2 75         8 5 86   7  
     548010    39                                                3 1     187 8 0 4 22    49527284    7   7  0 44         4 6 66   0  
 
     XXXXXX    XX                                                X X     XXX X X X XX    XXXXXXXX    X   X  X XX         X X XX   X  
          X    XX                                                  X     X   X X    X    X X   X     X                               
               XX                                                  X         X X    X      X   X     X                               
               X                                                   X           X    X      X   X     X                               
               X                                                   X           X    X                X                               
                                                                   X           X    X                X                               
                                                                   X           X    X                                                
                                                                   X                X                                                
                                                                   X                X                                                
                                                                   X                X                                                
                                                                   X                X                                                
                                                                   X                X                                                
                                                                   X                X                                                
                                                                   X                X                                                
                                                                   X                X                                                
                                                                   X                X                                                
                                                                   X                X                                                
                                                                   X                X                                                
                                                                                    X                                                
                                                                                    X                                                
 
 ***** Axes restored to original set *****
 -------------------------------------------------------------------
 Center     Atomic                   Forces (Hartrees/Bohr)
 Number     Number              X              Y              Z
 -------------------------------------------------------------------
      1        6           0.000072436   -0.000054857   -0.000000160
      2        6          -0.000099390    0.000041021    0.000000426
      3        8           0.000045463   -0.000031924   -0.000000407
      4        6           0.000013248   -0.000001086   -0.000000689
      5        6           0.000025955    0.000027417    0.000000446
      6        6           0.000004568   -0.000006630   -0.000000072
      7        1          -0.000012344    0.000011492   -0.000000011
      8        1           0.000001450    0.000008660    0.000000134
      9        1          -0.000033537    0.000025584    0.000000052
     10        1          -0.000007661   -0.000003320   -0.000001794
     11        1          -0.000007186   -0.000002985    0.000002195
     12        1          -0.000007138   -0.000008269   -0.000000065
     13        1           0.000003728   -0.000000445   -0.000000014
     14        1           0.000000408   -0.000004657   -0.000000041
 -------------------------------------------------------------------
 Cartesian Forces:  Max     0.000099390 RMS     0.000025357
 Z-matrix is all fixed cartesians, so copy forces.
 Leave Link  716 at Sun Apr  2 00:31:26 2017, MaxMem=  2147483648 cpu:         0.2
 (Enter /usr/local/gaussian/g09/l103.exe)

 GradGradGradGradGradGradGradGradGradGradGradGradGradGradGradGradGradGrad
 Berny optimization.
 Search for a local minimum.
 Step number   1 out of a maximum of    2
 All quantities printed in internal units (Hartrees-Bohrs-Radians)
 Second derivative matrix not updated -- analytic derivatives used.
 ITU=  0
     Eigenvalues ---    0.00084   0.00177   0.00416   0.00508   0.01071
     Eigenvalues ---    0.01916   0.03059   0.03488   0.04170   0.04778
     Eigenvalues ---    0.05809   0.06629   0.06631   0.07115   0.09808
     Eigenvalues ---    0.10751   0.11708   0.12075   0.15581   0.16964
     Eigenvalues ---    0.19468   0.20225   0.20741   0.31721   0.32561
     Eigenvalues ---    0.43443   0.58090   0.68048   0.73474   0.77261
     Eigenvalues ---    0.80996   0.87391   0.96853   1.00414   1.48232
     Eigenvalues ---    1.50725
 Angle between quadratic step and forces=  78.23 degrees.
 Linear search not attempted -- first point.
 TrRot= -0.000031  0.000119 -0.000005 -0.000002  0.000000 -0.000002
 Variable       Old X    -DE/DX   Delta X   Delta X   Delta X     New X
                                 (Linear)    (Quad)   (Total)
    X1        4.77979   0.00007   0.00000   0.00058   0.00056   4.78035
    Y1        0.68281  -0.00005   0.00000  -0.00078  -0.00067   0.68214
    Z1       -0.00004   0.00000   0.00000   0.00004   0.00003  -0.00001
    X2        3.11991  -0.00010   0.00000  -0.00066  -0.00069   3.11922
    Y2       -1.22109   0.00004   0.00000   0.00028   0.00039  -1.22069
    Z2        0.00000   0.00000   0.00000   0.00000  -0.00001  -0.00001
    X3        0.55621   0.00005   0.00000  -0.00039  -0.00043   0.55578
    Y3       -1.10795  -0.00003   0.00000   0.00093   0.00105  -1.10690
    Z3        0.00005   0.00000   0.00000  -0.00006  -0.00007  -0.00001
    X4       -0.56094   0.00001   0.00000  -0.00033  -0.00035  -0.56129
    Y4        1.33170   0.00000   0.00000   0.00093   0.00105   1.33275
    Z4        0.00004   0.00000   0.00000  -0.00004  -0.00005  -0.00001
    X5       -3.38820   0.00003   0.00000  -0.00025  -0.00028  -3.38847
    Y5        1.11794   0.00003   0.00000   0.00012   0.00025   1.11820
    Z5       -0.00002   0.00000   0.00000   0.00001   0.00001  -0.00001
    X6       -4.69817   0.00000   0.00000   0.00085   0.00081  -4.69735
    Y6       -1.02998  -0.00001   0.00000  -0.00058  -0.00044  -1.03043
    Z6       -0.00003   0.00000   0.00000   0.00002   0.00002  -0.00001
    X7        6.78151  -0.00001   0.00000   0.00030   0.00027   6.78178
    Y7        0.24895   0.00001   0.00000  -0.00183  -0.00173   0.24722
    Z7       -0.00009   0.00000   0.00000   0.00008   0.00008  -0.00001
    X8        4.24844   0.00000   0.00000   0.00171   0.00168   4.25012
    Y8        2.66021   0.00001   0.00000  -0.00042  -0.00031   2.65989
    Z8       -0.00002   0.00000   0.00000   0.00003   0.00002   0.00000
    X9        3.71819  -0.00003   0.00000  -0.00173  -0.00177   3.71642
    Y9       -3.18562   0.00003   0.00000   0.00003   0.00014  -3.18548
    Z9       -0.00002   0.00000   0.00000   0.00001   0.00000  -0.00002
   X10        0.08230  -0.00001   0.00000  -0.00055  -0.00057   0.08172
   Y10        2.39801   0.00000   0.00000   0.00092   0.00104   2.39905
   Z10       -1.67015   0.00000   0.00000  -0.00011  -0.00012  -1.67027
   X11        0.08223  -0.00001   0.00000  -0.00048  -0.00051   0.08172
   Y11        2.39800   0.00000   0.00000   0.00092   0.00104   2.39904
   Z11        1.67026   0.00000   0.00000   0.00001   0.00000   1.67026
   X12       -4.36426  -0.00001   0.00000  -0.00123  -0.00125  -4.36550
   Y12        2.93180  -0.00001   0.00000  -0.00043  -0.00030   2.93150
   Z12       -0.00004   0.00000   0.00000   0.00004   0.00003   0.00000
   X13       -6.75062   0.00000   0.00000   0.00085   0.00082  -6.74980
   Y13       -1.02211   0.00000   0.00000  -0.00166  -0.00152  -1.02363
   Z13       -0.00007   0.00000   0.00000   0.00006   0.00006  -0.00001
   X14       -3.76182   0.00000   0.00000   0.00175   0.00171  -3.76011
   Y14       -2.85396   0.00000   0.00000  -0.00012   0.00001  -2.85395
   Z14       -0.00001   0.00000   0.00000  -0.00001  -0.00001  -0.00002
         Item               Value     Threshold  Converged?
 Maximum Force            0.000099     0.000450     YES
 RMS     Force            0.000025     0.000300     YES
 Maximum Displacement     0.001772     0.001800     YES
 RMS     Displacement     0.000762     0.001200     YES
 Predicted change in Energy=-8.363027D-08
 Optimization completed.
    -- Stationary point found.
 GradGradGradGradGradGradGradGradGradGradGradGradGradGradGradGradGradGrad

 Leave Link  103 at Sun Apr  2 00:31:26 2017, MaxMem=  2147483648 cpu:         0.1
 (Enter /usr/local/gaussian/g09/l9999.exe)
 1\1\GINC-COMP116\Freq\RB3LYP\6-31G(d)\C5H8O1\RPATON\02-Apr-2017\0\\#p 
 freq b3lyp/6-31g(d) geom=connectivity\\ground state structure\\0,1\C,2
 .529357,0.36133,-0.00002\C,1.650985,-0.646172,-0.000002\O,0.294333,-0.
 586301,0.000029\C,-0.296838,0.704706,0.000021\C,-1.792958,0.591589,-0.
 000009\C,-2.486162,-0.545043,-0.000017\H,3.588621,0.131739,-0.000045\H
 ,2.248176,1.40772,-0.000013\H,1.967584,-1.685756,-0.000009\H,0.043549,
 1.268971,-0.883806\H,0.043514,1.268967,0.883863\H,-2.309465,1.551442,-
 0.00002\H,-3.572272,-0.540878,-0.000037\H,-1.990668,-1.510251,-0.00000
 4\\Version=ES64L-G09RevD.01\State=1-A\HF=-270.5072318\RMSD=4.327e-09\R
 MSF=2.536e-05\ZeroPoint=0.1188062\Thermal=0.1256033\Dipole=-0.0332011,
 0.3357782,-0.0000064\DipoleDeriv=-0.3311698,-0.0860587,-0.0000053,-0.3
 174085,-0.1653624,0.0000077,-0.0000033,0.0000026,-0.4328838,1.5026342,
 0.1120971,-0.0000253,0.093075,0.3819569,-0.0000012,-0.000037,-0.000003
 7,0.0491737,-1.6681343,0.0171415,0.0000184,0.4651921,-0.556566,-0.0000
 042,0.000025,0.0000082,-0.2748104,0.573018,-0.1037045,-0.0000029,-0.61
 52842,0.4390487,0.0000085,0.0000019,-0.000001,0.4712607,0.2096274,0.06
 09116,0.0000068,-0.0077,0.1332394,-0.0000031,0.0000079,0.0000016,-0.18
 436,-0.0081535,-0.0730143,0.0000054,-0.08655,-0.0260527,-0.0000025,0.0
 000046,-0.0000027,-0.2705744,-0.0763895,0.0268515,0.0000046,0.0495586,
 0.0535929,-0.0000015,0.0000051,-0.0000006,0.1431641,0.0472053,0.066478
 5,0.0000032,0.0583221,-0.0528609,-0.0000016,0.0000044,-0.0000012,0.167
 8237,-0.015911,0.0297911,0.0000017,0.0623128,-0.086395,-0.0000007,0.00
 00023,-0.0000013,0.1213774,-0.0636769,-0.0731338,0.0643415,0.088386,-0
 .0272482,0.063095,0.0344079,0.0809896,-0.0892372,-0.0636797,-0.0731296
 ,-0.0643396,0.0883929,-0.0272493,-0.0630994,-0.03441,-0.0809936,-0.089
 2425,-0.0437838,0.0488961,-0.000002,0.0613026,-0.0923169,0.0000014,-0.
 0000023,0.0000007,0.1159382,-0.1250146,-0.0139728,-0.0000043,0.0057146
 ,0.0517818,0.0000004,-0.0000046,0.0000002,0.1341265,0.0634282,0.060846
 5,-0.0000022,0.054686,-0.0255683,0.0000011,-0.000002,0.0000014,0.13824
 39\Polar=75.8842219,8.5621775,59.3489522,-0.0001436,0.0000263,27.44149
 38\PG=C01 [X(C5H8O1)]\NImag=0\\0.74230619,0.09529476,0.77708958,-0.000
 01491,-0.00000133,0.08257369,-0.28456899,-0.20271375,0.00000500,0.7030
 4478,-0.20577085,-0.38135502,0.00000432,0.11298793,0.84228138,0.000005
 12,0.00000410,-0.04827938,-0.00001206,-0.00000297,0.13540834,-0.054849
 09,-0.00871881,0.00000152,-0.31553810,-0.01124513,0.00000664,0.5234249
 5,-0.02617547,0.01424471,0.00000059,0.02363705,-0.11163132,-0.00000013
 ,-0.08433554,0.37527311,0.00000121,0.00000039,0.01172492,0.00000580,0.
 00000083,-0.04564858,-0.00000838,-0.00000189,0.07882105,0.00266724,0.0
 0186237,-0.00000006,-0.03710831,0.04392886,0.00000007,-0.09730855,0.01
 566473,0.00000077,0.53316703,-0.01304485,0.00321988,0.00000035,0.02691
 053,-0.00987549,-0.00000040,0.04525067,-0.20216681,0.00000032,0.035906
 86,0.50063556,-0.00000005,-0.00000014,-0.00158362,0.00000015,-0.000000
 97,-0.00301636,0.00000009,0.00000176,-0.06825660,-0.00000173,0.0000014
 2,0.55973916,0.00039868,0.00058112,0.,-0.00073999,0.00041141,-0.000000
 16,-0.02289439,0.00963081,-0.00000030,-0.21897493,-0.00833414,-0.00000
 288,0.62781544,-0.00023844,-0.00027274,-0.00000003,-0.00168271,-0.0074
 0187,0.00000032,0.04925904,-0.00388215,0.00000051,-0.02156852,-0.09131
 716,-0.00000021,0.11252764,0.84124942,0.00000007,-0.00000004,0.0004604
 5,0.00000020,0.,0.00005151,-0.00000045,0.00000020,0.00211877,-0.000002
 88,-0.00000004,-0.07618293,0.00000855,0.00000020,0.14246815,-0.0005231
 8,0.00002505,0.,0.00022051,-0.00113669,-0.00000001,0.00099820,-0.00202
 618,0.00000005,-0.02075263,-0.03122247,-0.00000032,-0.23614687,-0.2051
 1284,-0.00000275,0.71537499,-0.00010622,-0.00015564,0.,0.00104342,-0.0
 0016100,-0.00000002,-0.00124758,-0.00086342,0.,-0.01042053,0.00346079,
 -0.00000017,-0.19997456,-0.45401901,-0.00000217,0.09711983,0.81360047,
 -0.00000001,0.,0.00006907,0.,-0.00000002,-0.00011752,0.00000001,0.,0.0
 0036836,-0.00000052,-0.00000067,0.00593798,-0.00000269,-0.00000215,-0.
 04684332,0.00001092,-0.00000101,0.10434748,-0.33586344,0.06123752,0.00
 000732,-0.01774230,0.00877674,0.00000036,0.00005354,-0.00285066,0.0000
 0025,0.00085008,-0.00110173,0.,0.00006057,0.00000804,0.,-0.00010546,-0
 .00003246,0.,0.35503734,0.06707740,-0.07013313,-0.00000162,-0.02547168
 ,0.00844064,0.00000060,-0.00414368,-0.00315285,0.00000007,0.00127663,-
 0.00206353,0.00000006,-0.00021381,0.00055069,-0.00000003,0.00016753,-0
 .00004436,0.,-0.06565159,0.06706971,0.00000745,-0.00000144,-0.02340353
 ,0.00000019,-0.00000028,-0.00380091,0.00000029,0.00000018,0.01188271,-
 0.00000008,-0.00000003,0.00095079,0.,-0.00000004,0.00024163,0.,0.,-0.0
 0000668,-0.00000788,0.00000159,0.02012529,-0.07812401,0.07685992,0.000
 00131,0.01140799,-0.02156060,-0.00000021,0.00082339,0.00246423,-0.0000
 0014,-0.00196500,-0.00083855,-0.00000003,-0.00018258,-0.00024748,0.,0.
 00008054,0.00002636,0.,-0.00305901,0.02700544,0.00000010,0.07552879,0.
 07163049,-0.32750140,-0.00000192,0.01012707,-0.01988579,-0.00000022,0.
 00095827,0.00167463,-0.00000003,0.00111958,-0.00077680,0.00000010,-0.0
 0025647,0.00098243,-0.00000004,0.00036347,-0.00007571,0.,-0.00018694,-
 0.00200388,0.00000002,-0.08116076,0.34835311,0.00000129,-0.00000194,-0
 .02703889,-0.00000008,0.00000050,0.00450606,-0.00000022,-0.00000010,-0
 .00565882,0.,0.00000001,-0.00097856,0.00000002,0.00000004,-0.00060780,
 0.,0.,-0.00001448,0.00000008,-0.00000065,0.00020147,-0.00000122,0.0000
 0210,0.01942911,0.00971839,-0.02025405,-0.00000011,-0.07069332,0.06696
 124,0.00000074,-0.02576705,0.03939997,0.00000034,-0.00404762,-0.003054
 32,0.00000035,-0.00008733,0.00189164,0.00000002,-0.00002390,0.00005131
 ,0.,0.00072463,0.00002805,-0.00000014,-0.00224613,-0.00323579,0.000000
 27,0.09325234,0.00771224,-0.01799486,-0.00000018,0.07297591,-0.3221451
 8,-0.00000159,0.00592869,0.00028651,-0.00000007,-0.00113712,0.00352180
 ,-0.00000003,-0.00010760,-0.00026323,-0.00000002,0.00008908,0.00005222
 ,0.,-0.00036096,0.00082157,0.,-0.00285191,-0.00131517,0.00000008,-0.08
 217533,0.33727977,-0.00000015,0.00000029,0.00616416,0.00000074,-0.0000
 0144,-0.04139622,0.00000062,-0.00000087,0.00078558,0.00000012,0.000000
 18,0.00400080,0.,-0.00000008,0.00027034,0.,0.,-0.00004279,-0.00000015,
 0.00000001,-0.00588242,0.00000026,0.00000007,0.01030250,-0.00000142,0.
 00000180,0.02599702,-0.00044948,-0.00206844,0.00003910,0.00537277,0.00
 235403,-0.00161223,0.00079321,0.01364636,-0.01354133,-0.07495745,-0.03
 841715,0.06832437,-0.01310400,-0.01926472,0.02629488,-0.00298613,0.002
 28375,0.00001225,0.00004408,-0.00002930,0.00078551,-0.00116736,0.00031
 705,-0.00166610,-0.00007419,-0.00008404,0.00051800,0.08175683,0.001488
 03,0.00143336,-0.00054752,-0.00812643,0.00009427,0.00053116,0.00359300
 ,-0.03636867,0.02677514,-0.03344531,-0.10072535,0.08926957,-0.00546302
 ,-0.00041500,0.00280248,0.00045927,0.00118084,-0.00004407,0.00003720,0
 .00019982,-0.00013511,0.00015556,0.00025178,0.00042369,0.00031726,-0.0
 0010690,-0.00055617,0.03748573,0.12448224,-0.00020160,0.00093363,-0.00
 025596,0.00201701,-0.00013508,0.00090199,-0.00536820,0.00422267,0.0067
 4284,0.06238111,0.09297740,-0.21410871,0.00021970,-0.00143797,0.003988
 42,-0.00053256,-0.00089619,-0.00006789,0.00004832,-0.00050505,-0.00012
 731,-0.00017568,-0.00071185,-0.00014206,-0.00022894,0.00000415,-0.0001
 0531,-0.06791437,-0.10653895,0.22752767,-0.00044916,-0.00206838,-0.000
 03918,0.00537273,0.00235396,0.00161186,0.00079284,0.01364655,0.0135418
 2,-0.07495259,-0.03841339,-0.06831965,-0.01310306,-0.01926476,-0.02629
 570,-0.00298611,0.00228375,-0.00001236,0.00004405,-0.00002934,-0.00078
 544,-0.00116689,0.00031703,0.00166596,-0.00007426,-0.00008401,-0.00051
 805,0.00442995,0.00377570,0.00902454,0.08175081,0.00148816,0.00143330,
 0.00054734,-0.00812630,0.00009419,-0.00053090,0.00359407,-0.03636844,-
 0.02677524,-0.03344212,-0.10072435,-0.08927143,-0.00546298,-0.00041495
 ,-0.00280279,0.00045927,0.00118083,0.00004411,0.00003721,0.00019980,0.
 00013511,0.00015562,0.00025172,-0.00042372,0.00031735,-0.00010691,0.00
 055620,0.00377528,0.00973468,0.01210429,0.03748143,0.12448124,0.000201
 58,-0.00093355,-0.00025593,-0.00201694,0.00013506,0.00090194,0.0053682
 2,-0.00422226,0.00674366,-0.06237655,-0.09297915,-0.21411564,-0.000220
 38,0.00143714,0.00398727,0.00053243,0.00089629,-0.00006787,-0.00004830
 ,0.00050501,-0.00012732,0.00017562,0.00071175,-0.00014210,0.00022892,-
 0.00000416,-0.00010533,-0.00902331,-0.01210392,-0.02428917,0.06790939,
 0.10654077,0.22753497,-0.00038039,-0.00004482,0.00000002,0.00125914,0.
 00177727,-0.00000013,-0.00851825,-0.00114813,-0.00000004,-0.00839499,0
 .02821446,-0.00000023,-0.12352292,0.11661093,-0.00000186,0.01192872,-0
 .01752148,0.00000017,-0.00005144,-0.00008316,0.00000001,0.00006599,-0.
 00006229,-0.00000001,-0.00061820,0.00007792,0.00000002,0.00067448,-0.0
 0053471,0.00081020,0.00067446,-0.00053474,-0.00081018,0.12709882,0.000
 10638,0.00002236,0.,-0.00048416,0.00040017,0.00000002,-0.00128067,0.00
 107713,-0.00000005,-0.00238366,0.00238878,-0.00000005,0.11493097,-0.26
 528732,0.00000251,0.01495170,-0.02277016,0.00000035,0.00001562,-0.0000
 0710,0.,-0.00002232,-0.00003920,0.,-0.00011330,0.00001522,0.,0.0007520
 2,0.00018983,0.00002752,0.00075203,0.00018980,-0.00002750,-0.12373657,
 0.28521407,0.,0.00000001,-0.00007364,-0.00000002,0.00000006,0.00059346
 ,-0.00000013,-0.00000011,0.00103748,-0.00000016,0.00000060,0.00133027,
 -0.00000183,0.00000241,-0.03794671,0.00000008,-0.00000015,0.00544732,0
 .,0.,-0.00006202,0.,0.,0.00008032,-0.00000002,0.,-0.00004846,-0.000815
 69,-0.00014428,0.00012670,0.00081573,0.00014424,0.00012669,0.00000209,
 -0.00000276,0.02533882,-0.00025803,-0.00009357,0.,0.00068142,-0.000128
 12,-0.00000002,-0.00025311,-0.00026174,0.00000001,0.00145902,-0.001626
 86,-0.00000020,-0.01311968,0.00218911,-0.00000032,-0.34372950,0.004655
 86,-0.00000571,-0.00003337,0.00000536,0.,0.00001529,0.00005157,0.,-0.0
 0003716,0.00003515,0.,-0.00042981,-0.00011033,-0.00003565,-0.00042990,
 -0.00011033,0.00003564,0.00122517,-0.00022035,0.00000017,0.36372586,0.
 00007296,-0.00004000,0.,-0.00018040,0.00028551,0.,0.00118959,0.0007613
 4,0.00000002,-0.00007176,-0.00475081,0.00000007,-0.03132155,0.00236823
 ,-0.00000060,0.00921279,-0.05820429,0.00000031,0.00000837,0.00005525,0
 .,0.00001853,0.00008064,0.,-0.00008354,0.00000895,0.,-0.00069947,-0.00
 002800,0.00001483,-0.00069945,-0.00002800,-0.00001486,0.00009282,0.001
 38512,-0.00000004,-0.00242482,0.05429418,-0.00000002,0.,-0.00008205,0.
 ,-0.00000001,0.00016533,0.,0.,-0.00000256,-0.00000024,0.00000001,0.013
 91137,-0.00000014,0.00000006,0.00251666,-0.00000576,0.00000018,-0.0330
 9177,0.,0.,-0.00006259,0.,0.,0.00008407,0.,0.,-0.00002036,-0.00262734,
 -0.00020282,-0.00032278,0.00262737,0.00020282,-0.00032267,0.00000017,-
 0.00000003,-0.00817451,0.00000626,-0.00000018,0.02358444,0.00037526,0.
 00010109,-0.00000001,-0.00096832,0.00028994,0.00000004,-0.00175761,-0.
 00129198,-0.00000008,0.00031868,-0.00022906,0.00000013,0.01360107,-0.0
 1510692,0.00000024,-0.12134920,0.12183855,-0.00000205,0.00004073,0.000
 06213,0.,-0.00001101,0.00001772,0.,-0.00002620,-0.00001802,0.,0.000097
 11,0.00036806,-0.00004388,0.00009715,0.00036808,0.00004388,-0.00144058
 ,-0.00326769,-0.00000023,-0.00881620,0.02488592,-0.00000030,0.11983912
 ,0.00046543,0.00000959,-0.00000001,-0.00089650,0.00085953,0.00000003,0
 .00119809,0.00111624,0.,0.00270999,-0.00082650,0.,0.01305218,-0.021877
 33,0.00000032,0.11665018,-0.28318156,0.00000315,0.00006365,0.00006736,
 0.,-0.00000404,0.00000365,0.,-0.00005047,-0.00005379,0.,-0.00005111,0.
 00007709,-0.00005939,-0.00005113,0.00007709,0.00005939,-0.00310750,-0.
 00277872,0.,-0.00196094,0.00381188,-0.00000005,-0.12801783,0.30269548,
 0.00000001,0.,-0.00001931,0.,0.00000002,-0.00026966,-0.00000003,-0.000
 00003,-0.00065880,0.00000014,0.,-0.00762795,0.00000010,-0.00000019,0.0
 0547755,-0.00000206,0.00000322,-0.03591790,0.,0.,0.00007089,0.,0.,-0.0
 0002082,0.,0.,0.00008049,0.00122627,0.00047081,0.00013155,-0.00122628,
 -0.00047080,0.00013150,-0.00000023,-0.00000002,0.01222428,-0.00000019,
 0.00000045,0.00181741,0.00000226,-0.00000344,0.02458077\\-0.00007244,0
 .00005486,0.00000016,0.00009939,-0.00004102,-0.00000043,-0.00004546,0.
 00003192,0.00000041,-0.00001325,0.00000109,0.00000069,-0.00002595,-0.0
 0002742,-0.00000045,-0.00000457,0.00000663,0.00000007,0.00001234,-0.00
 001149,0.00000001,-0.00000145,-0.00000866,-0.00000013,0.00003354,-0.00
 002558,-0.00000005,0.00000766,0.00000332,0.00000179,0.00000719,0.00000
 299,-0.00000219,0.00000714,0.00000827,0.00000006,-0.00000373,0.0000004
 4,0.00000001,-0.00000041,0.00000466,0.00000004\\\@


 NOBODY LOSES ALL THE TIME
 I HAD AN UNCLE NAMED
 SOL WHO WAS A BORN FAILURE AND
 NEARLY EVERYBODY SAID HE SHOULD HAVE GONE
 INTO VAUDEVILLE PERHAPS BECAUSE MY UNCLE SOL COULD
 SING MCCANN HE WAS A DIVER ON XMAS EVE LIKE HELL ITSELF WHICH
 MAY OR MAY NOT ACCOUNT FOR THE FACT THAT MY UNCLE
 SOL INDULGED IN THAT POSSIBLY MOST INEXCUSABLE
 OF ALL TO USE A HIGHFALOOTIN PHRASE
 LUXURIES THAT IS OR TO
 WIT FARMING AND BE
 IT NEEDLESSLY
 ADDED
 MY UNCLE SOL'S FARM     
 FAILED BECAUSE THE CHICKENS
 ATE THE VEGETABLES SO
 MY UNCLE SOL HAD A
 CHICKEN FARM TILL THE
 SKUNKS ATE THE CHICKENS WHEN 
 MY UNCLE SOL
 HAD A SKUNK FARM BUT
 THE SKUNKS CAUGHT COLD AND
 DIED AND SO
 MY UNCLE SOL IMITATED THE
 SKUNKS IN A SUBTLE MANNER
 OR BY DROWNING HIMSELF IN THE WATERTANK
 BUT SOMEBODY WHO'D GIVEN MY UNCLE SOL A VICTOR     
 VICTROLA AND RECORDS WHILE HE LIVED PRESENTED TO
 HIM UPON THE AUSPICIOUS OCCASION OF HIS DECEASE A
 SCRUMPTIOUS NOT TO MENTION SPLENDIFEROUS FUNERAL WITH
 TALL BOYS IN BLACK GLOVES AND FLOWERS AND EVERYTHING AND
 I REMEMBER WE ALL CRIED LIKE THE MISSOURI
 WHEN MY UNCLE SOL'S COFFIN LURCHED BECAUSE     
 SOMEBODY PRESSED A BUTTON
 (AND DOWN WENT
 MY UNCLE
 SOL
 AND STARTED A WORM FARM)
           E. E. CUMMINGS
 Job cpu time:       0 days  0 hours  2 minutes 28.1 seconds.
 File lengths (MBytes):  RWF=     23 Int=      0 D2E=      0 Chk=      2 Scr=      1
 Normal termination of Gaussian 09 at Sun Apr  2 00:31:26 2017.
