
                                 *****************
                                 * O   R   C   A *
                                 *****************

                                            #,                                       
                                            ###                                      
                                            ####                                     
                                            #####                                    
                                            ######                                   
                                           ########,                                 
                                     ,,################,,,,,                         
                               ,,#################################,,                 
                          ,,##########################################,,             
                       ,#########################################, ''#####,          
                    ,#############################################,,   '####,        
                  ,##################################################,,,,####,       
                ,###########''''           ''''###############################       
              ,#####''   ,,,,##########,,,,          '''####'''          '####       
            ,##' ,,,,###########################,,,                        '##       
           ' ,,###''''                  '''############,,,                           
         ,,##''                                '''############,,,,        ,,,,,,###''
      ,#''                                            '''#######################'''  
     '                                                          ''''####''''         
             ,#######,   #######,   ,#######,      ##                                
            ,#'     '#,  ##    ##  ,#'     '#,    #''#        ,####,    ,#,          
            ##       ##  ##   ,#'  ##            #'  '#       #'       ,# #          
            ##       ##  #######   ##           ,######,      #####,      #          
            '#,     ,#'  ##    ##  '#,     ,#' ,#      #,     #,   #      #          
             '#######'   ##     ##  '#######'  #'      '#     '####' #    #          



                #########################################################
                #                        -***-                          #
                #          Department of theory and spectroscopy        #
                #                                                       #
                #                      Frank Neese                      #
                #                                                       #
                #     Directorship, Architecture, Infrastructure        #
                #                    SHARK, DRIVERS                     #
                #        Core code/Algorithms in most modules           #
                #                                                       #
                #        Max Planck Institute fuer Kohlenforschung      #
                #                Kaiser Wilhelm Platz 1                 #
                #                 D-45470 Muelheim/Ruhr                 #
                #                      Germany                          #
                #                                                       #
                #                  All rights reserved                  #
                #                        -***-                          #
                #########################################################


                         Program Version 6.1.0  -  RELEASE   -
                                (GIT: $679e74b$)
                          ($2025-06-10 18:02:51 +0200$)


 With contributions from (in alphabetic order):
[Max-Planck-Institut fuer Kohlenforschung]                               
  Daniel Aravena         : Magnetic Suceptibility                        
  Michael Atanasov       : Ab Initio Ligand Field Theory (pilot matlab implementation)
  Alexander A. Auer      : GIAO ZORA, VPT2 properties, NMR spectrum      
  Ute Becker             : All parallelization in ORCA, NUMFREQ, NUMCALC 
  Giovanni Bistoni       : ED, misc. LED, open-shell LED, HFLD           
  Dmytro Bykov           : pre 5.0 version of the SCF Hessian            
  Marcos Casanova-Páez   : Triplet and SCS-CIS(D). UHF-(DLPNO)-IP/EA/STEOM-CCSD. UHF-CVS-IP/STEOM-CCSD   
  Vijay G. Chilkuri      : MRCI spin determinant printing, contributions to CSF-ICE 
  Pauline Colinet        : FMM embedding                                 
  Dipayan Datta          : RHF DLPNO-CCSD density                        
  Achintya Kumar Dutta   : EOM-CC, STEOM-CC                              
  Nicolas Foglia         : Exact transition moments, OPA infrastructure, MCD improvements    
  Dmitry Ganyushin       : Spin-Orbit,Spin-Spin,Magnetic field MRCI      
  Miquel Garcia-Rates    : C-PCM and meta-GGA Hessian, CCSD/C-PCM, Gaussian charge scheme 
  Tiago L. C. Gouveia    : GS-ROHF, GS-ROCIS                             
  Yang Guo               : DLPNO-NEVPT2, F12-NEVPT2, CIM, IAO-localization        
  Andreas Hansen         : Spin unrestricted coupled pair/coupled cluster methods 
  Ingolf Harden          : AUTO-CI MPn and infrastructure                
  Benjamin Helmich-Paris : MC-RPA, TRAH-(SCF,CASSCF), AVAS, COSX integrals, SCF dyn. polar., MC-PDFT, srDFT 
  Lee Huntington         : MR-EOM, pCC                                   
  Robert Izsak           : Overlap fitted RIJCOSX, COSX-SCS-MP3, EOM     
  Riya Kayal             : Wick's Theorem for AUTO-CI, AUTO-CI UHF-CCSDT 
  Emily Kempfer          : AUTO-CI RHF CISDT and CCSDT, approximate NEVPT4
  Christian Kollmar      : KDIIS, OOCD, Brueckner-CCSD(T), CCSD density, CASPT2, CASPT2-K, improved NEVPT2 
  Axel Koslowski         : Symmetry handling                             
  Simone Kossmann        : meta-GGA functionals, TD-DFT gradient, OOMP2, (MP2 Hessian; deprecated post 5.0) 
  Lucas Lang             : DCDCAS, Hyperfine gauge corrections, ICE-SOC+SSC
  Marvin Lechner         : AUTO-CI (C++ implementation), FIC-MRCC        
  Spencer Leger          : CASSCF response                               
  Dagmar Lenk            : GEPOL surface, SMD, ORCA-2-JSON               
  Dimitrios Liakos       : Extrapolation schemes; Compound Job, Property file
  Dimitrios Manganas     : Further ROCIS development; embedding schemes. LFT, Crystal Embedding 
  Dimitrios Pantazis     : SARC Basis sets                               
  Anastasios Papadopoulos: AUTO-CI, single reference methods and gradients 
  Taras Petrenko         : pre 6.0 DFT Hessian and TD-DFT gradient,  ECA, NRVS 
  Petra Pikulova         : Analytic Raman intensities                    
  Peter Pinski           : DLPNO-MP2, DLPNO-MP2 Gradient                 
  Shashank Vittal Rao    : ES-AILFT, MagRelax                            
  Christoph Reimann      : Effective Core Potentials                     
  Marius Retegan         : Local ZFS, SOC                                
  Christoph Riplinger    : Optimizer, TS searches, QM/MM, DLPNO-CCSD(T), (RO)-DLPNO pert. Triples 
  Michael Roemelt        : Original ROCIS implementation, recursive CI coupling coefficients
  Masaaki Saitow         : Open-shell DLPNO-CCSD energy and density      
  Barbara Sandhoefer     : DKH picture change effects                    
  Yorick L. A. Schmerwitz: GMF and freeze-and-release deltaSCF, NEB S-IDPP initial path                    
  Kantharuban Sivalingam : CASSCF convergence/infrastructure, NEVPT2, NEVPT3, NEVPT4(SD), FIC-MRCI and CEPA variants
  Bernardo de Souza      : ESD, SOC TD-DFT                               
  Georgi L. Stoychev     : AutoAux, RI-MP2 NMR, DLPNO-MP2 response, X2C  
  Van Anh Tran           : RI-MP2 g-tensors                              
  Willem Van den Heuvel  : Paramagnetic NMR                              
  Zikuan Wang            : NOTCH, Electric field optimization            
  Frank Wennmohs         : Technical directorship and infrastructure     
  Hang Xu                : AUTO-CI-Response properties                   
                                                                         
[FACCTs GmbH]                                                            
  Markus Bursch, Nicolas Foglia, Miquel Garcia-Rates, Ingolf Harden, Hagen Neugebauer, Anastasios Papadopoulos, 
  Christoph Riplinger, Bernardo de Souza, Georgi L. Stoychev                                                    
                                                                 
  APM, various basis sets, CI-OPT, improved COSX, DLPNO-Multilevel,           
  DOCKER, DRACO, updates on ESD, Fragmentator, GOAT, IRC, LR-CPCM, L-BFGS, MBIS, meta-GGA TD-DFT gradient, ML-optimized integration grids, 
  MM, NACMEs, nearIR, NEB, NEB-TS, NL-DFT gradient (VV10), 2- and 3-layer-ONIOM, interface openCOSMO-RS, QMMM,   
  Crystal-QMMM, RESP, rigid body optimization, SF, symmetry and pop. for TD-DFT, various functionals, SOLVATOR                                   
                                                                         
[Other institutions]                                                     
  V. Asgeirsson          : NEB                                           
  Christoph Bannwarth    : sTDA-DFT, sTD-DFT, PBEh-3c, B97-3c, D3        
  Giovanni Bistoni       : ETS/NOCV, ADLD/ADEX, COVALED                  
  Martin Brehm           : Molecular dynamics                            
  Ronald Cardenas        : ETS/NOCV                                      
  Martina Colucci        : COVALED                                       
  Sebastian Ehlert       : rSCAN, r2SCAN, r2SCAN-3c, D4, dhf basis sets  
  Marvin Friede          : D4 for Fr, Ra, Ac-Lr                          
  Lars Goerigk           : TD-DFT with DH, B97 family of functionals     
  Stefan Grimme          : VdW corrections, initial TS optimization, DFT functionals, gCP, sTDA/sTD-DF 
  Waldemar Hujo          : DFT-NL                                        
  H. Jonsson             : NEB                                           
  Holger Kruse           : gCP                                           
  Marcel Mueller         : wB97X-3c, vDZP basis set                      
  Hagen Neugebauer       : wr2SCAN, Native XTB                           
  Gianluca Regni         : ADLD/ADEX                                     
  Tobias Risthaus        : pre 6.0 range-separated hybrid DFT and stability analysis
  Lukas Wittmann         : regularized MP2, r2SCAN double-hybrids, wr2SCAN        
                                                                         
We gratefully acknowledge several colleagues who have allowed us to      
interface, adapt or use parts of their codes:                            
  Ed Valeev, F. Pavosevic, A. Kumar             : LibInt (2-el integral package), F12 methods 
  Garnet Chan, S. Sharma, J. Yang, R. Olivares  : DMRG                   
  Ulf Ekstrom                                   : XCFun DFT Library      
  Mihaly Kallay                                 : mrcc  (arbitrary order and MRCC methods)
  Frank Weinhold                                : gennbo (NPA and NBO analysis)           
  Simon Mueller                                 : openCOSMO-RS                            
  Christopher J. Cramer and Donald G. Truhlar   : smd solvation model                     
  S Lehtola, MJT Oliveira, MAL Marques          : LibXC Library                           
  Liviu Ungur et al                             : ANISO software                          


 Your calculation uses the libint2 library for the computation of 2-el integrals
 For citations please refer to: http://libint.valeyev.net

 Your ORCA version has been built with support for libXC version: 7.0.0
 For citations please refer to: https://libxc.gitlab.io

 This ORCA versions uses:
   CBLAS   interface :  Fast vector & matrix operations
   LAPACKE interface :  Fast linear algebra routines
   SCALAPACK package :  Parallel linear algebra routines
   Shared memory     :  Shared parallel matrices
   BLAS/LAPACK       :  OpenBLAS 0.3.29  USE64BITINT DYNAMIC_ARCH NO_AFFINITY Cooperlake SINGLE_THREADED
        Core in use  :  Cooperlake
   Copyright (c) 2011-2014, The OpenBLAS Project


  ***********************************
  * Starting time: Sat Jun  6 14:29:09 2026
  * Host name:     skymarshal
  * Process ID:    2121519
  * Working dir.:  /tmp/pentane_GG_2121502
  ***********************************

NOTE: MaxCore=2813 MB was set to SCF,MP2,MDCI,CIPSI,MRCI,RASCI and CIS
      => If you want to overwrite this, your respective input block should be placed after the MaxCore statement
Your calculation utilizes the geometrical counterpoise correction gCP
Please cite in your paper:
H.Kruse, S. Grimme J.Chem.Phys., 136, (2012), 154101 
   

Your calculation utilizes the atom-pairwise dispersion correction
based on EEQ partial charges (D4)


================================================================================

----- Orbital basis set information -----
Your calculation utilizes the basis: def2-mTZVPP
   Stefan Grimme, Andreas Hansen, Sebastian Ehlert, and Jan-Michael Mewes 
   J. Chem. Phys. 154, 064103 (2021). DOI: 10.1063/5.0040021

----- AuxJ basis set information -----
Your calculation utilizes the basis: def2-mTZVPP/J
   Stefan Grimme, Andreas Hansen, Sebastian Ehlert, and Jan-Michael Mewes 
   J. Chem. Phys. 154, 000000 (2021). DOI: 10.1063/5.0040021

================================================================================
                                        WARNINGS
                       Please study these warnings very carefully!
================================================================================



WARNING: SCAN, rSCAN, or r2SCAN functional requested.
  ===> : libXC variant has now been activated.



WARNING: Geometry Optimization
  ===> : Switching off AutoStart
         For restart on a previous wavefunction, please use MOREAD

================================================================================
                                       INPUT FILE
================================================================================
NAME = pentane_GG.inp
|  1> ! r2SCAN-3c OPT FREQ
|  2> %pal nprocs 8 end
|  3> %maxcore 2813
|  4> * xyz 0 1
|  5>   C      2.524142    -0.060270     0.049008
|  6>   C      1.180911    -0.709329    -0.244258
|  7>   C      0.036529     0.298079    -0.136152
|  8>   C      0.214816     1.450113    -1.124686
|  9>   C      0.249792     0.951753    -2.560641
| 10>   H      2.546763     0.354245     1.061927
| 11>   H      2.731665     0.748913    -0.658448
| 12>   H      3.327956    -0.798455    -0.033945
| 13>   H      1.202761    -1.141602    -1.251423
| 14>   H      1.018875    -1.534090     0.459469
| 15>   H     -0.009091     0.694273     0.885659
| 16>   H     -0.917619    -0.207433    -0.329043
| 17>   H     -0.606668     2.167330    -1.012967
| 18>   H      1.145823     1.986577    -0.907546
| 19>   H     -0.681254     0.437917    -2.820379
| 20>   H      1.080949     0.256136    -2.714370
| 21>   H      0.377945     1.791841    -3.250383
| 22> *
| 23> 
| 24>                          ****END OF INPUT****
================================================================================

                       *****************************
                       * Geometry Optimization Run *
                       *****************************

Geometry optimization settings:
Update method            Update   .... BFGS
Choice of coordinates    CoordSys .... (2022) Redundant Internals
Initial Hessian          InHess   .... Almloef's Model
Max. no of cycles        MaxIter  .... 51

Convergence Tolerances:
Energy Change            TolE     ....  5.0000e-06 Eh
Max. Gradient            TolMAXG  ....  3.0000e-04 Eh/bohr
RMS Gradient             TolRMSG  ....  1.0000e-04 Eh/bohr
Max. Displacement        TolMAXD  ....  4.0000e-03 bohr
RMS Displacement         TolRMSD  ....  2.0000e-03 bohr
Strict Convergence                .... False

------------------------------------------------------------------------------
                        ORCA OPTIMIZATION COORDINATE SETUP
------------------------------------------------------------------------------

The optimization will be done in redundant internal coordinates (2022)
Making redundant internal coordinates   ...  (2022 redundants) done
Evaluating the initial hessian          ...  (Almloef) done
Evaluating the coordinates              ...  done
Calculating the B-matrix                .... done
Calculating the G-matrix                .... done
The number of degrees of freedom        ....   70

    -----------------------------------------------------------------
                    Redundant Internal Coordinates


    -----------------------------------------------------------------
         Definition                    Initial Value    Approx d2E/dq
    -----------------------------------------------------------------
      1. B(C   1,C   0)                  1.5204         0.387015   
      2. B(C   2,C   1)                  1.5285         0.375704   
      3. B(C   3,C   2)                  1.5285         0.375704   
      4. B(C   4,C   3)                  1.5204         0.387014   
      5. B(H   5,C   0)                  1.0947         0.353953   
      6. B(H   6,C   0)                  1.0947         0.353954   
      7. B(H   7,C   0)                  1.0945         0.354205   
      8. B(H   8,C   1)                  1.0962         0.351953   
      9. B(H   9,C   1)                  1.0962         0.351953   
     10. B(H  10,C   2)                  1.0969         0.351111   
     11. B(H  11,C   2)                  1.0969         0.351112   
     12. B(H  12,C   3)                  1.0962         0.351954   
     13. B(H  13,C   3)                  1.0962         0.351954   
     14. B(H  14,C   4)                  1.0947         0.353954   
     15. B(H  15,C   4)                  1.0947         0.353954   
     16. B(H  16,C   4)                  1.0945         0.354205   
     17. A(C   1,C   0,H   7)          110.2610         0.325324   
     18. A(H   5,C   0,H   6)          108.3108         0.289273   
     19. A(C   1,C   0,H   5)          111.0014         0.325286   
     20. A(C   1,C   0,H   6)          111.0015         0.325286   
     21. A(H   5,C   0,H   7)          108.0799         0.289305   
     22. A(H   6,C   0,H   7)          108.0800         0.289305   
     23. A(C   0,C   1,C   2)          111.4977         0.365911   
     24. A(C   0,C   1,H   8)          109.1444         0.324983   
     25. A(H   8,C   1,H   9)          107.2215         0.288759   
     26. A(C   2,C   1,H   8)          109.8652         0.323404   
     27. A(C   0,C   1,H   9)          109.1445         0.324983   
     28. A(C   2,C   1,H   9)          109.8653         0.323405   
     29. A(C   1,C   2,H  10)          109.5784         0.323277   
     30. A(C   1,C   2,C   3)          111.3278         0.364058   
     31. A(C   3,C   2,H  11)          109.5784         0.323278   
     32. A(C   1,C   2,H  11)          109.5784         0.323278   
     33. A(C   3,C   2,H  10)          109.5784         0.323277   
     34. A(H  10,C   2,H  11)          107.1038         0.288543   
     35. A(C   2,C   3,C   4)          111.4977         0.365911   
     36. A(H  12,C   3,H  13)          107.2215         0.288760   
     37. A(C   4,C   3,H  13)          109.1445         0.324983   
     38. A(C   2,C   3,H  13)          109.8652         0.323405   
     39. A(C   4,C   3,H  12)          109.1444         0.324983   
     40. A(C   2,C   3,H  12)          109.8652         0.323405   
     41. A(H  15,C   4,H  16)          108.0799         0.289305   
     42. A(H  14,C   4,H  16)          108.0800         0.289305   
     43. A(C   3,C   4,H  16)          110.2610         0.325324   
     44. A(H  14,C   4,H  15)          108.3108         0.289273   
     45. A(C   3,C   4,H  15)          111.0015         0.325286   
     46. A(C   3,C   4,H  14)          111.0014         0.325286   
     47. D(H   8,C   1,C   0,H   7)    -58.4442         0.011916   
     48. D(H   8,C   1,C   0,H   5)   -178.1839         0.011916   
     49. D(C   2,C   1,C   0,H   7)   -179.9998         0.011916   
     50. D(C   2,C   1,C   0,H   5)     60.2605         0.011916   
     51. D(H   8,C   1,C   0,H   6)     61.2956         0.011916   
     52. D(C   2,C   1,C   0,H   6)    -60.2599         0.011916   
     53. D(C   3,C   2,C   1,C   0)     60.0000         0.011264   
     54. D(H  10,C   2,C   1,H   9)     59.7592         0.011264   
     55. D(H  10,C   2,C   1,H   8)    177.4862         0.011264   
     56. D(H  10,C   2,C   1,C   0)    -61.3774         0.011264   
     57. D(C   3,C   2,C   1,H   9)   -178.8635         0.011264   
     58. D(C   3,C   2,C   1,H   8)    -61.1364         0.011264   
     59. D(C   4,C   3,C   2,H  11)    -61.3774         0.011264   
     60. D(C   4,C   3,C   2,H  10)   -178.6226         0.011264   
     61. D(C   4,C   3,C   2,C   1)     60.0000         0.011264   
     62. D(H  12,C   3,C   2,H  11)     59.7590         0.011264   
     63. D(H  12,C   3,C   2,H  10)    -57.4862         0.011264   
     64. D(H  12,C   3,C   2,C   1)   -178.8636         0.011264   
     65. D(H  15,C   4,C   3,H  13)     61.2963         0.011916   
     66. D(H  15,C   4,C   3,H  12)    178.1850         0.011916   
     67. D(H  15,C   4,C   3,C   2)    -60.2594         0.011916   
     68. D(H  14,C   4,C   3,H  13)   -178.1833         0.011916   
     69. D(H  14,C   4,C   3,H  12)    -61.2946         0.011916   
     70. D(H  14,C   4,C   3,C   2)     60.2610         0.011916   
    -----------------------------------------------------------------

Number of atoms                         .... 17
Number of degrees of freedom            .... 70


         *************************************************************
         *                GEOMETRY OPTIMIZATION CYCLE   1            *
         *************************************************************
---------------------------------
CARTESIAN COORDINATES (ANGSTROEM)
---------------------------------
  C      2.524142   -0.060270    0.049008
  C      1.180911   -0.709329   -0.244258
  C      0.036529    0.298079   -0.136152
  C      0.214816    1.450113   -1.124686
  C      0.249792    0.951753   -2.560641
  H      2.546763    0.354245    1.061927
  H      2.731665    0.748913   -0.658448
  H      3.327956   -0.798455   -0.033945
  H      1.202761   -1.141602   -1.251423
  H      1.018875   -1.534090    0.459469
  H     -0.009091    0.694273    0.885659
  H     -0.917619   -0.207433   -0.329043
  H     -0.606668    2.167330   -1.012967
  H      1.145823    1.986577   -0.907546
  H     -0.681254    0.437917   -2.820379
  H      1.080949    0.256136   -2.714370
  H      0.377945    1.791841   -3.250383

----------------------------
CARTESIAN COORDINATES (A.U.)
----------------------------
  NO LB      ZA    FRAG     MASS         X           Y           Z
   0 C     6.0000    0    12.011    4.769937   -0.113894    0.092612
   1 C     6.0000    0    12.011    2.231598   -1.340438   -0.461581
   2 C     6.0000    0    12.011    0.069030    0.563288   -0.257290
   3 C     6.0000    0    12.011    0.405943    2.740316   -2.125349
   4 C     6.0000    0    12.011    0.472038    1.798553   -4.838910
   5 H     1.0000    0     1.008    4.812685    0.669426    2.006751
   6 H     1.0000    0     1.008    5.162099    1.415240   -1.244286
   7 H     1.0000    0     1.008    6.288925   -1.508861   -0.064147
   8 H     1.0000    0     1.008    2.272889   -2.157315   -2.364847
   9 H     1.0000    0     1.008    1.925395   -2.899010    0.868271
  10 H     1.0000    0     1.008   -0.017180    1.311986    1.673653
  11 H     1.0000    0     1.008   -1.734049   -0.391992   -0.621801
  12 H     1.0000    0     1.008   -1.146436    4.095660   -1.914230
  13 H     1.0000    0     1.008    2.165292    3.754086   -1.715013
  14 H     1.0000    0     1.008   -1.287383    0.827543   -5.329744
  15 H     1.0000    0     1.008    2.042698    0.484027   -5.129416
  16 H     1.0000    0     1.008    0.714213    3.386089   -6.142334

--------------------------------
INTERNAL COORDINATES (ANGSTROEM)
--------------------------------
 C      0   0   0     0.000000000000     0.00000000     0.00000000
 C      1   0   0     1.520378917112     0.00000000     0.00000000
 C      2   1   0     1.528452795354   111.49768766     0.00000000
 C      3   2   1     1.528452832338   111.32783928    59.99996491
 C      4   3   2     1.520379154093   111.49768642    60.00003913
 H      1   2   3     1.094686848111   111.00143585    60.26048832
 H      1   2   3     1.094685760825   111.00151010   299.74005281
 H      1   2   3     1.094493143437   110.26104176   180.00020629
 H      2   1   3     1.096229312805   109.14437189   121.55557562
 H      2   1   3     1.096229019387   109.14447878   238.44425245
 H      3   2   1     1.096881301581   109.57840051   298.62261214
 H      3   2   1     1.096880907815   109.57843239   181.37737002
 H      4   3   2     1.096228681574   109.86519940   181.13642948
 H      4   3   2     1.096228733862   109.86521726   298.86342574
 H      5   4   3     1.094686218812   111.00138978    60.26101553
 H      5   4   3     1.094686062202   111.00150494   299.74058655
 H      5   4   3     1.094493063348   110.26102264   180.00078441

---------------------------
INTERNAL COORDINATES (A.U.)
---------------------------
 C      0   0   0     0.000000000000     0.00000000     0.00000000
 C      1   0   0     2.873099773129     0.00000000     0.00000000
 C      2   1   0     2.888357191845   111.49768766     0.00000000
 C      3   2   1     2.888357261734   111.32783928    59.99996491
 C      4   3   2     2.873100220959   111.49768642    60.00003913
 H      1   2   3     2.068658345335   111.00143585    60.26048832
 H      1   2   3     2.068656290663   111.00151010   299.74005281
 H      1   2   3     2.068292296550   110.26104176   180.00020629
 H      2   1   3     2.071573181179   109.14437189   121.55557562
 H      2   1   3     2.071572626698   109.14447878   238.44425245
 H      3   2   1     2.072805261406   109.57840051   298.62261214
 H      3   2   1     2.072804517297   109.57843239   181.37737002
 H      4   3   2     2.071571988325   109.86519940   181.13642948
 H      4   3   2     2.071572087135   109.86521726   298.86342574
 H      5   4   3     2.068657156132   111.00138978    60.26101553
 H      5   4   3     2.068656860182   111.00150494   299.74058655
 H      5   4   3     2.068292145204   110.26102264   180.00078441

---------------------
BASIS SET INFORMATION
---------------------
There are 2 groups of distinct atoms

 Group   1 Type C   : 11s6p1d contracted to 5s3p1d pattern {62111/411/1}
 Group   2 Type H   : 4s1p contracted to 2s1p pattern {31/1}

Atom   0C    basis set group =>   1
Atom   1C    basis set group =>   1
Atom   2C    basis set group =>   1
Atom   3C    basis set group =>   1
Atom   4C    basis set group =>   1
Atom   5H    basis set group =>   2
Atom   6H    basis set group =>   2
Atom   7H    basis set group =>   2
Atom   8H    basis set group =>   2
Atom   9H    basis set group =>   2
Atom  10H    basis set group =>   2
Atom  11H    basis set group =>   2
Atom  12H    basis set group =>   2
Atom  13H    basis set group =>   2
Atom  14H    basis set group =>   2
Atom  15H    basis set group =>   2
Atom  16H    basis set group =>   2
---------------------------------
AUXILIARY/J BASIS SET INFORMATION
---------------------------------
There are 2 groups of distinct atoms

 Group   1 Type C   : 8s3p3d contracted to 6s3p3d pattern {311111/111/111}
 Group   2 Type H   : 5s2p1d contracted to 3s1p1d pattern {311/2/1}

Atom   0C    basis set group =>   1
Atom   1C    basis set group =>   1
Atom   2C    basis set group =>   1
Atom   3C    basis set group =>   1
Atom   4C    basis set group =>   1
Atom   5H    basis set group =>   2
Atom   6H    basis set group =>   2
Atom   7H    basis set group =>   2
Atom   8H    basis set group =>   2
Atom   9H    basis set group =>   2
Atom  10H    basis set group =>   2
Atom  11H    basis set group =>   2
Atom  12H    basis set group =>   2
Atom  13H    basis set group =>   2
Atom  14H    basis set group =>   2
Atom  15H    basis set group =>   2
Atom  16H    basis set group =>   2
Authorization required, but no authorization protocol specified


           ************************************************************
           *        Program running with 8 parallel MPI-processes     *
           *              working on a common directory               *
           ************************************************************
------------------------------------------------------------------------------
                             ORCA STARTUP CALCULATIONS
                           -- RI-GTO INTEGRALS CHOSEN --
------------------------------------------------------------------------------
------------------------------------------------------------------------------
                   ___                                                        
                  /   \      - P O W E R E D   B Y -                         
                 /     \                                                     
                 |  |  |   _    _      __       _____    __    __             
                 |  |  |  | |  | |    /  \     |  _  \  |  |  /  |          
                  \  \/   | |  | |   /    \    | | | |  |  | /  /          
                 / \  \   | |__| |  /  /\  \   | |_| |  |  |/  /          
                |  |  |   |  __  | /  /__\  \  |    /   |      \           
                |  |  |   | |  | | |   __   |  |    \   |  |\   \          
                \     /   | |  | | |  |  |  |  | |\  \  |  | \   \       
                 \___/    |_|  |_| |__|  |__|  |_| \__\ |__|  \__/        
                                                                              
                      - O R C A' S   B I G   F R I E N D -                    
                                      &                                       
                       - I N T E G R A L  F E E D E R -                       
                                                                              
 v1 FN, 2020, v2 2021, v3 2022-2024                                           
------------------------------------------------------------------------------


----------------------
SHARK INTEGRAL PACKAGE
----------------------

Number of atoms                             ...     17
Number of basis functions                   ...    155
Number of shells                            ...     81
Maximum angular momentum                    ...      2
Integral batch strategy                     ... SHARK/LIBINT Hybrid
RI-J (if used) integral strategy            ... SPLIT-RIJ (Revised 2003 algorithm where possible)
Printlevel                                  ...      1
Contraction scheme used                     ... SEGMENTED contraction
Prescreening option                         ... SCHWARTZ
   Thresh                                   ... 2.500e-11
   Tcut                                     ... 2.500e-12
   Tpresel                                  ... 2.500e-12 
Coulomb Range Separation                    ... NOT USED
Exchange Range Separation                   ... NOT USED
Multipole approximations                    ... NOT USED
Finite Nucleus Model                        ... NOT USED
CABS basis                                  ... NOT available
Auxiliary Coulomb fitting basis             ... AVAILABLE
   # of basis functions in Aux-J            ...    282
   # of shells in Aux-J                     ...    120
   Maximum angular momentum in Aux-J        ...      2
Auxiliary J/K fitting basis                 ... NOT available
Auxiliary Correlation fitting basis         ... NOT available
Auxiliary 'external' fitting basis          ... NOT available

Checking pre-screening integrals            ... done (  0.0 sec) Dimension = 81
   => SHARK Basis and OBASIS are compatible. Storing Pre-screening
Shell pair information
Shell pair cut-off parameter TPreSel        ...   2.5e-12
Total number of shell pairs                 ...      3321
Shell pairs after pre-screening             ...      3197
Total number of primitive shell pairs       ...     11471
Primitive shell pairs kept                  ...      8416
          la=0 lb=0:   1167 shell pairs
          la=1 lb=0:   1273 shell pairs
          la=1 lb=1:    364 shell pairs
          la=2 lb=0:    243 shell pairs
          la=2 lb=1:    135 shell pairs
          la=2 lb=2:     15 shell pairs

Checking whether 4 symmetric matrices of dimension 155 fit in memory
:Max Core in MB      =   2813.00
 MB in use           =      5.37
 MB left             =   2807.63
 MB needed           =      0.37
 Data fit in memory  = YES
Calculating RI/J V-Matrix + Cholesky decomp.... done (  0.0 sec)
Calculating Nuclear repulsion               ... done (  0.0 sec) ENN=    193.534278439872 Eh

Diagonalization of the overlap matrix:
Smallest eigenvalue                        ... 2.784e-04
Time for diagonalization                   ...    0.002 sec
Threshold for overlap eigenvalues          ... 1.000e-07
Number of eigenvalues below threshold      ... 0
Time for construction of square roots      ...    0.001 sec
Total time needed                          ...    0.003 sec

-------------------
DFT GRID GENERATION
-------------------

General Integration Accuracy     IntAcc      ... 4.388
Radial Grid Type                 RadialGrid  ... OptM3 with GC (2021)
Angular Grid (max. ang.)         AngularGrid ... 4 (Lebedev-302)
Angular grid pruning method      GridPruning ... 4 (adaptive)
Weight generation scheme         WeightScheme... mBecke (2022)
Basis function cutoff            BFCut       ... 1.0000e-11
Integration weight cutoff        WCut        ... 1.0000e-14
Partially contracted basis set               ... off
Rotationally invariant grid construction     ... off
Angular grids for H and He will be reduced by one unit

Total number of grid points                  ...    68477
Total number of batches                      ...     1077
Average number of points per batch           ...       63
Average number of grid points per atom       ...     4028
Grids setup in   0.2 sec
Initializing property integral containers    ... done (  0.0 sec)

SHARK setup successfully completed in   0.2 seconds

Maximum memory used throughout the entire STARTUP-calculation: 17.8 MB
Authorization required, but no authorization protocol specified


           ************************************************************
           *        Program running with 8 parallel MPI-processes     *
           *              working on a common directory               *
           ************************************************************
-------------------------------------------------------------------------------
                                 ORCA GUESS
                   Start orbitals & Density for SCF / CASSCF
-------------------------------------------------------------------------------

------------
SCF SETTINGS
------------
Hamiltonian:
 Density Functional     Method          .... DFT(GTOs)
  Functional kind                       .... Exchange
  Functional name                       .... Re-regularized SCAN exchange by Furness et al
  Functional family                     .... MGGA
  Functional refs                              
    [ 0] J. W. Furness, A. D. Kaplan, J. Ning, J. P. Perdew, and J. Sun.,  J. Phys. Chem. Lett. 11, 8208-8215 (2020), doi: 10.1021/acs.jpclett.0c02405
    [ 1] J. W. Furness, A. D. Kaplan, J. Ning, J. P. Perdew, and J. Sun.,  J. Phys. Chem. Lett. 11, 9248-9248 (2020), doi: 10.1021/acs.jpclett.0c03077
  Functional external parameters        .... 6
    Parameter  0 _c1        =  6.670000e-01 : c1 parameter        
    Parameter  1 _c2        =  8.000000e-01 : c2 parameter        
    Parameter  2 _d         =  1.240000e+00 : d parameter         
    Parameter  3 _k1        =  6.500000e-02 : k1 parameter        
    Parameter  4 _eta       =  1.000000e-03 : eta parameter       
    Parameter  5 _dp2       =  3.610000e-01 : dp2 parameter       
  Functional kind                       .... Correlation
  Functional name                       .... Re-regularized SCAN correlation by Furness et al
  Functional family                     .... MGGA
  Functional refs                              
    [ 0] J. W. Furness, A. D. Kaplan, J. Ning, J. P. Perdew, and J. Sun.,  J. Phys. Chem. Lett. 11, 8208-8215 (2020), doi: 10.1021/acs.jpclett.0c02405
    [ 1] J. W. Furness, A. D. Kaplan, J. Ning, J. P. Perdew, and J. Sun.,  J. Phys. Chem. Lett. 11, 9248-9248 (2020), doi: 10.1021/acs.jpclett.0c03077
  Functional external parameters        .... 1
    Parameter  0 _eta       =  1.000000e-03 : Regularization parameter
 Gradients option       PostSCFGGA      .... off
 RI-approximation to the Coulomb term is turned on
   Number of AuxJ basis functions       .... 282


General Settings:
 Integral files         IntName         .... pentane_GG
 Hartree-Fock type      HFTyp           .... RHF
 Total Charge           Charge          ....    0
 Multiplicity           Mult            ....    1
 Number of Electrons    NEL             ....   42
 Basis Dimension        Dim             ....  155
 Nuclear Repulsion      ENuc            ....    193.5342784399 Eh

Convergence Acceleration:
 AO-DIIS                CNVDIIS         .... on
   Start iteration      DIISMaxIt       ....    12
   Startup error        DIISStart       ....  0.200000
   # of expansion vecs  DIISMaxEq       ....     5
   Bias factor          DIISBfac        ....   1.050
   Max. coefficient     DIISMaxC        ....  10.000
 MO-DIIS                CNVKDIIS        .... off
 Trust-Rad. Augm. Hess. CNVTRAH         .... auto
   Auto Start mean grad. ratio tolernc. ....  1.125000
   Auto Start start iteration           ....    50
   Auto Start num. interpolation iter.  ....    10
   Max. Number of Micro iterations      ....    24
   Max. Number of Macro iterations      .... Maxiter - #DIIS iter
   Number of Davidson start vectors     ....     2
   Converg. threshold    (grad. norm)   ....   1.000e-05
   Grad. Scal. Fac. for Micro threshold ....   0.100
   Minimum threshold for Micro iter.    ....   1.000e-02
   NR start threshold (gradient norm)   ....   1.000e-04
   Initial trust radius                 ....   0.400
   Minimum AH scaling param. (alpha)    ....   1.000
   Maximum AH scaling param. (alpha)    .... 1000.000
   Quad. conv. algorithm                .... NR
   White noise on init. David. guess    .... on
   Maximum white noise                  ....   0.010
   Pseudo random numbers                .... off
   Inactive MOs                         .... canonical
   Orbital update algorithm             .... Taylor
   Preconditioner                       .... Diag
   Full preconditioner red. dimension   ....   250
   COSX micro iterations for RIJONX calc.... off
 SOSCF                 CNVSOSCF           .... on
   Start iteration     SOSCFMaxIt         ....   150
   Startup grad/error  SOSCFStart         ....  0.003300
   Hessian update      SOSCFHessUp        .... L-BFGS
   Autom. constraints  SOSCFAutoConstrain .... off
 Level Shifting         CNVShift        .... on
   Level shift para.    LevelShift      ....    0.2500
   Turn off err/grad.   ShiftErr        ....    0.0010
 Zerner damping         CNVZerner       .... off
 Static damping         CNVDamp         .... on
   Fraction old density DampFac         ....    0.7000
   Max. Damping (<1)    DampMax         ....    0.9800
   Min. Damping (>=0)   DampMin         ....    0.0000
   Turn off err/grad.   DampErr         ....    0.1000

SCF Procedure:
 Maximum # iterations   MaxIter         ....   125
 SCF integral mode      SCFMode         .... Direct
   Integral package                     .... SHARK and LIBINT hybrid scheme
 Reset frequency        DirectResetFreq ....    20
 Integral Threshold     Thresh          ....  2.500e-11 Eh
 Primitive CutOff       TCut            ....  2.500e-12 Eh

Convergence Tolerance:
 Convergence Check Mode ConvCheckMode   .... Total+1el-Energy
 Convergence forced     ConvForced      .... 0
 Energy Change          TolE            ....  1.000e-08 Eh
 1-El. energy change                    ....  1.000e-05 Eh
 Orbital Gradient       TolG            ....  1.000e-05
 Orbital Rotation angle TolX            ....  1.000e-05
 DIIS Error             TolErr          ....  5.000e-07

------------------------------
INITIAL GUESS: MODEL POTENTIAL
------------------------------
Loading Hartree-Fock densities                     ... done
Calculating cut-offs                               ... done
Initializing the effective Hamiltonian             ... done
Setting up the integral package (SHARK)            ... done
Starting the Coulomb interaction                   ... done (   0.0 sec)
Making the grid                                    ... done (   0.0 sec)
Mapping shells                                     ... done
Starting the XC term evaluation                    ... done (   0.0 sec)
  promolecular density results
     # of electrons  =     41.996208972
     EX              =    -29.113992749
     EC              =     -1.350906093
     EX+EC           =    -30.464898842
Transforming the Hamiltonian                       ... done (   0.0 sec)
Diagonalizing the Hamiltonian                      ... done (   0.0 sec)
Back transforming the eigenvectors                 ... done (   0.0 sec)
Now organizing SCF variables                       ... done
                      ------------------
                      INITIAL GUESS DONE (   0.1 sec)
                      ------------------
             **** ENERGY FILE WAS UPDATED (pentane_GG.en.tmp) ****
Finished Guess after   0.1 sec
Maximum memory used throughout the entire GUESS-calculation: 8.0 MB
Authorization required, but no authorization protocol specified


           ************************************************************
           *        Program running with 8 parallel MPI-processes     *
           *              working on a common directory               *
           ************************************************************

-------------------------------------------------------------------------------------------
                                      ORCA LEAN-SCF
                              memory conserving SCF solver
-------------------------------------------------------------------------------------------

----------------------------------------D-I-I-S--------------------------------------------
Iteration    Energy (Eh)           Delta-E    RMSDP     MaxDP     DIISErr   Damp  Time(sec)
-------------------------------------------------------------------------------------------
               ***  Starting incremental Fock matrix formation  ***
    1    -197.4771693119058114     0.00e+00  7.38e-03  3.49e-02  1.88e-01  0.700   0.1
    2    -197.5817076741072356    -1.05e-01  5.19e-03  2.22e-02  9.44e-02  0.700   0.1
                               ***Turning on AO-DIIS***
    3    -197.6202268610329611    -3.85e-02  2.03e-03  7.38e-03  3.21e-02  0.700   0.1
    4    -197.6426123135082662    -2.24e-02  3.54e-03  1.32e-02  1.38e-02  0.000   0.1
    5    -197.6926751529123862    -5.01e-02  8.43e-04  5.81e-03  7.51e-03  0.000   0.1
                              *** Initializing SOSCF ***
---------------------------------------S-O-S-C-F--------------------------------------
Iteration    Energy (Eh)           Delta-E    RMSDP     MaxDP     MaxGrad    Time(sec)
--------------------------------------------------------------------------------------
    6    -197.6930677322919792    -3.93e-04  3.00e-04  2.01e-03  1.56e-03     0.1
               *** Restarting incremental Fock matrix formation ***
    7    -197.6930920927315469    -2.44e-05  2.03e-04  2.19e-03  1.96e-04     0.1
    8    -197.6930923005944010    -2.08e-07  4.05e-05  2.45e-04  1.64e-04     0.1
    9    -197.6930936708159834    -1.37e-06  2.90e-05  2.90e-04  1.99e-05     0.1
   10    -197.6930936860589441    -1.52e-08  1.23e-05  1.13e-04  1.74e-05     0.1
   11    -197.6930937004439102    -1.44e-08  2.17e-06  9.80e-06  2.39e-06     0.1
                  *** Gradient check signals convergence ***

               *****************************************************
               *                     SUCCESS                       *
               *           SCF CONVERGED AFTER  11 CYCLES          *
               *****************************************************

             **** ENERGY FILE WAS UPDATED (pentane_GG.en.tmp) ****

----------------
TOTAL SCF ENERGY
----------------

Total Energy       :       -197.69309370045175 Eh           -5379.50257 eV

Components:
Nuclear Repulsion  :        193.53427843987197 Eh            5266.33545 eV
Electronic Energy  :       -391.22737214032372 Eh          -10645.83802 eV
One Electron Energy:       -647.54060030315441 Eh          -17620.47554 eV
Two Electron Energy:        256.31322816283068 Eh            6974.63752 eV

Virial components:
Potential Energy   :       -394.37430633178440 Eh          -10731.47045 eV
Kinetic Energy     :        196.68121263133261 Eh            5351.96788 eV
Virial Ratio       :          2.00514477745780

DFT components:
N(Alpha)           :       21.000021527933 electrons
N(Beta)            :       21.000021527933 electrons
N(Total)           :       42.000043055866 electrons
E(X)               :      -30.280259809999 Eh       
E(C)               :       -1.280016719307 Eh       
E(XC)              :      -31.560276529306 Eh       

---------------
SCF CONVERGENCE
---------------

  Last Energy change         ...    1.4385e-08  Tolerance :   1.0000e-08
  Last MAX-Density change    ...    9.8033e-06  Tolerance :   1.0000e-07
  Last RMS-Density change    ...    2.1730e-06  Tolerance :   5.0000e-09
  Last DIIS Error            ...    1.5552e-03  Tolerance :   5.0000e-07
  Last Orbital Gradient      ...    2.3883e-06  Tolerance :   1.0000e-05
  Last Orbital Rotation      ...    5.9453e-06  Tolerance :   1.0000e-05


----------------
ORBITAL ENERGIES
----------------

  NO   OCC          E(Eh)            E(eV) 
   0   2.0000     -10.020797      -272.6797 
   1   2.0000     -10.020789      -272.6795 
   2   2.0000     -10.019684      -272.6495 
   3   2.0000     -10.014629      -272.5119 
   4   2.0000     -10.014628      -272.5119 
   5   2.0000      -0.771366       -20.9899 
   6   2.0000      -0.708611       -19.2823 
   7   2.0000      -0.640635       -17.4326 
   8   2.0000      -0.580989       -15.8095 
   9   2.0000      -0.516121       -14.0444 
  10   2.0000      -0.439428       -11.9574 
  11   2.0000      -0.429469       -11.6864 
  12   2.0000      -0.382498       -10.4083 
  13   2.0000      -0.373696       -10.1688 
  14   2.0000      -0.367903       -10.0111 
  15   2.0000      -0.335837        -9.1386 
  16   2.0000      -0.321612        -8.7515 
  17   2.0000      -0.312775        -8.5110 
  18   2.0000      -0.288961        -7.8630 
  19   2.0000      -0.282230        -7.6799 
  20   2.0000      -0.281410        -7.6576 
  21   0.0000       0.087352         2.3770 
  22   0.0000       0.113940         3.1005 
  23   0.0000       0.115816         3.1515 
  24   0.0000       0.131257         3.5717 
  25   0.0000       0.134356         3.6560 
  26   0.0000       0.151342         4.1182 
  27   0.0000       0.159719         4.3462 
  28   0.0000       0.166642         4.5346 
  29   0.0000       0.175451         4.7743 
  30   0.0000       0.178010         4.8439 
  31   0.0000       0.187653         5.1063 
*Only the first 10 virtual orbitals were printed.

                    ********************************
                    * MULLIKEN POPULATION ANALYSIS *
                    ********************************

-----------------------
MULLIKEN ATOMIC CHARGES
-----------------------
   0 C :   -0.482981
   1 C :   -0.262586
   2 C :   -0.249491
   3 C :   -0.263362
   4 C :   -0.482674
   5 H :    0.146359
   6 H :    0.147162
   7 H :    0.146326
   8 H :    0.144263
   9 H :    0.143776
  10 H :    0.142591
  11 H :    0.142533
  12 H :    0.143811
  13 H :    0.144458
  14 H :    0.146312
  15 H :    0.147157
  16 H :    0.146346
Sum of atomic charges:   -0.0000000

--------------------------------
MULLIKEN REDUCED ORBITAL CHARGES
--------------------------------
  0 C s       :     3.323075  s :     3.323075
      pz      :     1.070941  p :     3.131372
      px      :     0.995609
      py      :     1.064823
      dz2     :     0.006052  d :     0.028534
      dxz     :     0.002854
      dyz     :     0.006475
      dx2y2   :     0.004791
      dxy     :     0.008361

  1 C s       :     3.211169  s :     3.211169
      pz      :     1.096625  p :     3.012426
      px      :     0.904773
      py      :     1.011027
      dz2     :     0.007073  d :     0.038991
      dxz     :     0.004317
      dyz     :     0.008945
      dx2y2   :     0.008443
      dxy     :     0.010213

  2 C s       :     3.215413  s :     3.215413
      pz      :     1.032455  p :     2.995538
      px      :     0.999214
      py      :     0.963869
      dz2     :     0.009569  d :     0.038539
      dxz     :     0.002693
      dyz     :     0.008977
      dx2y2   :     0.006791
      dxy     :     0.010509

  3 C s       :     3.211561  s :     3.211561
      pz      :     0.902917  p :     3.012811
      px      :     1.112757
      py      :     0.997136
      dz2     :     0.011525  d :     0.038990
      dxz     :     0.004340
      dyz     :     0.009722
      dx2y2   :     0.003279
      dxy     :     0.010125

  4 C s       :     3.322862  s :     3.322862
      pz      :     0.971731  p :     3.131277
      px      :     1.078328
      py      :     1.081218
      dz2     :     0.007646  d :     0.028534
      dxz     :     0.003718
      dyz     :     0.008049
      dx2y2   :     0.002266
      dxy     :     0.006856

  5 H s       :     0.835768  s :     0.835768
      pz      :     0.009658  p :     0.017873
      px      :     0.003509
      py      :     0.004706

  6 H s       :     0.834548  s :     0.834548
      pz      :     0.006575  p :     0.018290
      px      :     0.003957
      py      :     0.007758

  7 H s       :     0.835729  s :     0.835729
      pz      :     0.003671  p :     0.017945
      px      :     0.007565
      py      :     0.006710

  8 H s       :     0.837741  s :     0.837741
      pz      :     0.009899  p :     0.017996
      px      :     0.003424
      py      :     0.004673

  9 H s       :     0.838573  s :     0.838573
      pz      :     0.006414  p :     0.017651
      px      :     0.003558
      py      :     0.007678

 10 H s       :     0.839800  s :     0.839800
      pz      :     0.009800  p :     0.017609
      px      :     0.003412
      py      :     0.004397

 11 H s       :     0.839859  s :     0.839859
      pz      :     0.003606  p :     0.017608
      px      :     0.009010
      py      :     0.004993

 12 H s       :     0.838539  s :     0.838539
      pz      :     0.003481  p :     0.017650
      px      :     0.007481
      py      :     0.006688

 13 H s       :     0.837548  s :     0.837548
      pz      :     0.003739  p :     0.017995
      px      :     0.008991
      py      :     0.005265

 14 H s       :     0.835815  s :     0.835815
      pz      :     0.003949  p :     0.017873
      px      :     0.008669
      py      :     0.005254

 15 H s       :     0.834553  s :     0.834553
      pz      :     0.003806  p :     0.018290
      px      :     0.007732
      py      :     0.006752

 16 H s       :     0.835709  s :     0.835709
      pz      :     0.006541  p :     0.017945
      px      :     0.003751
      py      :     0.007653



                     *******************************
                     * LOEWDIN POPULATION ANALYSIS *
                     *******************************

----------------------
LOEWDIN ATOMIC CHARGES
----------------------
   0 C :   -0.428772
   1 C :   -0.323328
   2 C :   -0.315856
   3 C :   -0.323368
   4 C :   -0.428766
   5 H :    0.151799
   6 H :    0.149616
   7 H :    0.150884
   8 H :    0.151037
   9 H :    0.151975
  10 H :    0.154724
  11 H :    0.154716
  12 H :    0.151987
  13 H :    0.151051
  14 H :    0.151794
  15 H :    0.149623
  16 H :    0.150885

-------------------------------
LOEWDIN REDUCED ORBITAL CHARGES
-------------------------------
  0 C s       :     2.974433  s :     2.974433
      pz      :     1.150809  p :     3.389962
      px      :     1.095158
      py      :     1.143995
      dz2     :     0.014472  d :     0.064376
      dxz     :     0.005338
      dyz     :     0.015546
      dx2y2   :     0.010073
      dxy     :     0.018946

  1 C s       :     2.937054  s :     2.937054
      pz      :     1.141256  p :     3.304574
      px      :     1.059530
      py      :     1.103788
      dz2     :     0.016062  d :     0.081701
      dxz     :     0.007668
      dyz     :     0.019849
      dx2y2   :     0.016545
      dxy     :     0.021577

  2 C s       :     2.939140  s :     2.939140
      pz      :     1.111493  p :     3.295869
      px      :     1.101256
      py      :     1.083120
      dz2     :     0.020738  d :     0.080847
      dxz     :     0.004702
      dyz     :     0.019330
      dx2y2   :     0.013422
      dxy     :     0.022654

  3 C s       :     2.937060  s :     2.937060
      pz      :     1.059755  p :     3.304608
      px      :     1.144303
      py      :     1.100551
      dz2     :     0.024243  d :     0.081700
      dxz     :     0.007719
      dyz     :     0.020244
      dx2y2   :     0.006931
      dxy     :     0.022563

  4 C s       :     2.974431  s :     2.974431
      pz      :     1.086200  p :     3.389959
      px      :     1.154354
      py      :     1.149405
      dz2     :     0.017101  d :     0.064376
      dxz     :     0.007127
      dyz     :     0.017883
      dx2y2   :     0.005573
      dxy     :     0.016691

  5 H s       :     0.805615  s :     0.805615
      pz      :     0.024154  p :     0.042586
      px      :     0.007739
      py      :     0.010693

  6 H s       :     0.806695  s :     0.806695
      pz      :     0.015954  p :     0.043689
      px      :     0.008905
      py      :     0.018831

  7 H s       :     0.806415  s :     0.806415
      pz      :     0.007934  p :     0.042701
      px      :     0.018257
      py      :     0.016509

  8 H s       :     0.805405  s :     0.805405
      pz      :     0.024610  p :     0.043558
      px      :     0.007931
      py      :     0.011017

  9 H s       :     0.805365  s :     0.805365
      pz      :     0.015713  p :     0.042660
      px      :     0.008340
      py      :     0.018607

 10 H s       :     0.802612  s :     0.802612
      pz      :     0.024291  p :     0.042665
      px      :     0.007838
      py      :     0.010536

 11 H s       :     0.802619  s :     0.802619
      pz      :     0.008378  p :     0.042665
      px      :     0.022228
      py      :     0.012060

 12 H s       :     0.805353  s :     0.805353
      pz      :     0.008077  p :     0.042660
      px      :     0.018491
      py      :     0.016092

 13 H s       :     0.805390  s :     0.805390
      pz      :     0.008696  p :     0.043560
      px      :     0.022327
      py      :     0.012536

 14 H s       :     0.805620  s :     0.805620
      pz      :     0.008844  p :     0.042586
      px      :     0.021594
      py      :     0.012147

 15 H s       :     0.806688  s :     0.806688
      pz      :     0.008570  p :     0.043689
      px      :     0.018974
      py      :     0.016146

 16 H s       :     0.806415  s :     0.806415
      pz      :     0.015556  p :     0.042701
      px      :     0.008140
      py      :     0.019004



                      *****************************
                      * MAYER POPULATION ANALYSIS *
                      *****************************

  NA   - Mulliken gross atomic population
  ZA   - Total nuclear charge
  QA   - Mulliken gross atomic charge
  VA   - Mayer's total valence
  BVA  - Mayer's bonded valence
  FA   - Mayer's free valence

  ATOM       NA         ZA         QA         VA         BVA        FA
  0 C      6.4830     6.0000    -0.4830     3.7890     3.7890    -0.0000
  1 C      6.2626     6.0000    -0.2626     3.6346     3.6346    -0.0000
  2 C      6.2495     6.0000    -0.2495     3.5457     3.5457    -0.0000
  3 C      6.2634     6.0000    -0.2634     3.6351     3.6351    -0.0000
  4 C      6.4827     6.0000    -0.4827     3.7888     3.7888    -0.0000
  5 H      0.8536     1.0000     0.1464     0.9638     0.9638    -0.0000
  6 H      0.8528     1.0000     0.1472     0.9638     0.9638     0.0000
  7 H      0.8537     1.0000     0.1463     0.9628     0.9628    -0.0000
  8 H      0.8557     1.0000     0.1443     0.9628     0.9628    -0.0000
  9 H      0.8562     1.0000     0.1438     0.9613     0.9613    -0.0000
 10 H      0.8574     1.0000     0.1426     0.9652     0.9652     0.0000
 11 H      0.8575     1.0000     0.1425     0.9652     0.9652     0.0000
 12 H      0.8562     1.0000     0.1438     0.9613     0.9613    -0.0000
 13 H      0.8555     1.0000     0.1445     0.9627     0.9627    -0.0000
 14 H      0.8537     1.0000     0.1463     0.9638     0.9638     0.0000
 15 H      0.8528     1.0000     0.1472     0.9638     0.9638     0.0000
 16 H      0.8537     1.0000     0.1463     0.9628     0.9628    -0.0000

  Mayer bond orders larger than 0.100000
B(  0-C ,  1-C ) :   0.8898 B(  0-C ,  5-H ) :   0.9781 B(  0-C ,  6-H ) :   0.9799 
B(  0-C ,  7-H ) :   0.9699 B(  1-C ,  2-C ) :   0.8926 B(  1-C ,  8-H ) :   0.9904 
B(  1-C ,  9-H ) :   0.9587 B(  2-C ,  3-C ) :   0.8927 B(  2-C , 10-H ) :   0.9784 
B(  2-C , 11-H ) :   0.9784 B(  3-C ,  4-C ) :   0.8900 B(  3-C , 12-H ) :   0.9586 
B(  3-C , 13-H ) :   0.9904 B(  4-C , 14-H ) :   0.9781 B(  4-C , 15-H ) :   0.9799 
B(  4-C , 16-H ) :   0.9699 

-------
TIMINGS
-------

Total SCF time: 0 days 0 hours 0 min 1 sec 

Total time                  ....       1.350 sec
Sum of individual times     ....       1.242 sec  ( 92.0%)

SCF preparation             ....       0.064 sec  (  4.7%)
Fock matrix formation       ....       1.072 sec  ( 79.4%)
  Startup                   ....       0.003 sec  (  0.2% of F)
  Split-RI-J                ....       0.131 sec  ( 12.2% of F)
  XC integration            ....       0.978 sec  ( 91.3% of F)
    Basis function eval.    ....       0.134 sec  ( 13.7% of XC)
    Density eval.           ....       0.239 sec  ( 24.4% of XC)
    XC-Functional eval.     ....       0.100 sec  ( 10.2% of XC)
    XC-Potential eval.      ....       0.275 sec  ( 28.1% of XC)
Diagonalization             ....       0.000 sec  (  0.0%)
Density matrix formation    ....       0.014 sec  (  1.0%)
Total Energy calculation    ....       0.007 sec  (  0.5%)
Population analysis         ....       0.007 sec  (  0.5%)
Orbital Transformation      ....       0.009 sec  (  0.7%)
Orbital Orthonormalization  ....       0.000 sec  (  0.0%)
DIIS solution               ....       0.043 sec  (  3.2%)
SOSCF solution              ....       0.026 sec  (  1.9%)
Finished LeanSCF after   1.4 sec

Maximum memory used throughout the entire LEANSCF-calculation: 8.9 MB
Authorization required, but no authorization protocol specified


           ************************************************************
           *        Program running with 8 parallel MPI-processes     *
           *              working on a common directory               *
           ************************************************************

------------------------------------------------------------------------------
                         ORCA PROPERTY INTEGRAL CALCULATIONS
------------------------------------------------------------------------------

GBWName                                   ... pentane_GG.gbw
Number of atoms                           ...     17
Number of basis functions                 ...    155
Max core memory                           ...   2813 MB

Dipole integrals                          ... YES
Quadrupole integrals                      ...  NO
Linear momentum integrals                 ...  NO
Angular momentum integrals                ...  NO
Higher moments length integrals           ...  NO
Higher moments velocity integrals         ...  NO
Kinetic energy integrals                  ...  NO
GIAO right hand sides                     ...  NO
GIAO dipole derivative integrals          ...  NO
SOC integrals                             ...  NO
EPR diamagnetic integrals (GIAO)          ...  NO
EPR gauge integrals                       ...  NO
Field gradient integrals                  ...  NO (   0 nuclei)
Spin-dipole/Fermi contact integrals       ...  NO (   0 nuclei)
Contact density integrals                 ...  NO (   0 nuclei)
Nucleus-orbit integrals                   ...  NO (   0 nuclei)
Geometric perturbations                   ...  NO (  17 nuclei)

Choice of electric origin   ... Center of mass
Position of electric origin ... (  1.6194,  0.7328, -1.5427) 
Choice of magnetic origin   ... GIAO
Position of magnetic origin ... (  0.0000,  0.0000,  0.0000) 

Calculating integrals                     ... Electric Dipole (Length)     done (  0.0 sec)

Property integrals calculated in   0.0 sec

Maximum memory used throughout the entire PROPINT-calculation: 8.3 MB


-------------------------------------------------------------------------------
                          DFT DISPERSION CORRECTION                            
                                                                               
                                DFTD4 V3.4.0                                   
-------------------------------------------------------------------------------
The R2SCAN3C composite method is recognized
Using three-body term ABC
Active option DFTDOPT                   ...         5   

-------------------------   ----------------
Dispersion correction           -0.003929289
-------------------------   ----------------

------------------   -----------------
gCP correction             0.008209523
------------------   -----------------

-------------------------   --------------------
FINAL SINGLE POINT ENERGY      -197.688813466591
-------------------------   --------------------

Authorization required, but no authorization protocol specified


           ************************************************************
           *        Program running with 8 parallel MPI-processes     *
           *              working on a common directory               *
           ************************************************************
------------------------------------------------------------------------------
                         ORCA SCF GRADIENT CALCULATION
------------------------------------------------------------------------------

Nuc. rep. gradient        (SHARK) ... done (  0.0 sec)
HCore & Overlap gradient  (SHARK) ... done (  0.0 sec)
Split-RIJ-J gradient      (SHARK) ... done (  0.1 sec)
XC gradient                       ... done (  0.2 sec)
Dispersion correction             ... done (  0.0 sec)

-------------------
DISPERSION GRADIENT
-------------------

   1   C   :    0.000071329   -0.000016449    0.000037986
   2   C   :    0.000013341   -0.000045632    0.000024804
   3   C   :   -0.000034854   -0.000003811    0.000028898
   4   C   :   -0.000027716    0.000044060   -0.000012886
   5   C   :   -0.000026565    0.000021344   -0.000075100
   6   H   :    0.000028610   -0.000006450    0.000022722
   7   H   :    0.000033402   -0.000004557    0.000013051
   8   H   :    0.000035190   -0.000015704    0.000013366
   9   H   :    0.000006795   -0.000021894    0.000005277
  10   H   :    0.000004765   -0.000026955    0.000019762
  11   H   :   -0.000015745    0.000002268    0.000023769
  12   H   :   -0.000025687   -0.000006798    0.000010582
  13   H   :   -0.000021909    0.000025081   -0.000005547
  14   H   :   -0.000006765    0.000021898   -0.000005303
  15   H   :   -0.000017940    0.000007617   -0.000031568
  16   H   :   -0.000007413    0.000007398   -0.000034599
  17   H   :   -0.000008838    0.000018585   -0.000035215

Difference to translation invariance:
           :    0.0000000000   -0.0000000000   -0.0000000000

Difference to rotation invariance:
           :   -0.0000000000    0.0000000000    0.0000000000

Norm of the Dispersion gradient    ...    0.0001874409
RMS gradient                       ...    0.0000262470
MAX gradient                       ...    0.0000751005
gCP correction                   ... done

------------------
CARTESIAN GRADIENT
------------------

   1   C   :   -0.004671243    0.003721628    0.000994717
   2   C   :    0.000705988   -0.000046157   -0.004421362
   3   C   :   -0.001329926   -0.000184283    0.001021656
   4   C   :    0.004568357    0.000712248    0.000093981
   5   C   :   -0.001309893   -0.004354938    0.003859880
   6   H   :   -0.000289164   -0.001207796   -0.000402230
   7   H   :   -0.002825785    0.001298991   -0.001164775
   8   H   :   -0.001794829   -0.001227763   -0.000506118
   9   H   :    0.001198452    0.002785659   -0.001998734
  10   H   :    0.001049836    0.001129371    0.000592607
  11   H   :    0.000076696    0.000466598   -0.001376122
  12   H   :    0.001428191   -0.000264735    0.000091430
  13   H   :   -0.000260255   -0.001034970   -0.001262734
  14   H   :    0.002487674   -0.002486535   -0.000968402
  15   H   :    0.000213755    0.001159825    0.000547507
  16   H   :    0.000744675   -0.001486871    0.002917784
  17   H   :    0.000007471    0.001019726    0.001980914

Difference to translation invariance:
           :   -0.0000000000   -0.0000000000    0.0000000000

Difference to rotation invariance:
           :    0.0001755614   -0.0003530219   -0.0002637996

Norm of the Cartesian gradient     ...    0.0137248521
RMS gradient                       ...    0.0019218637
MAX gradient                       ...    0.0046712427

-------
TIMINGS
-------

Total SCF gradient time     ....        0.322 sec

Densities                   ....       0.000 sec  (  0.1%)
One electron gradient       ....       0.013 sec  (  3.9%)
RI-J Coulomb gradient       ....       0.057 sec  ( 17.6%)
XC gradient                 ....       0.230 sec  ( 71.6%)

Maximum memory used throughout the entire SCFGRAD-calculation: 27.9 MB
------------------------------------------------------------------------------
                         ORCA GEOMETRY RELAXATION STEP
------------------------------------------------------------------------------

Reading the OPT-File                    .... done
Getting information on internals        .... done
Copying old internal coords+grads       .... done
Making the new internal coordinates     .... (2022 redundants) done
Validating the new internal coordinates .... (2022 redundants) done
Calculating the B-matrix                .... done
Calculating the G,G- and P matrices     .... done
Transforming gradient to internals      .... done
Projecting the internal gradient        .... done
Number of atoms                         ....  17
Number of internal coordinates          ....  70
Current Energy                          ....  -197.688813467 Eh
Current gradient norm                   ....     0.013724852 Eh/bohr
Maximum allowed component of the step   ....  0.300
Current trust radius                    ....  0.300
Evaluating the initial hessian          ....  (Almloef) done
Projecting the Hessian                  .... done
Forming the augmented Hessian           .... done
Diagonalizing the augmented Hessian     .... done
Last element of RFO vector              ....  0.979640294
Lowest eigenvalues of augmented Hessian:
 -0.006222675  0.011263738  0.011268062  0.011916005  0.012246324
Length of the computed step             ....  0.204933166
The final length of the internal step   ....  0.204933166
Converting the step to Cartesian space:
 Initial RMS(Int)=    0.0244941982
Transforming coordinates:
 Iter   0:  RMS(Cart)=    0.1322700292 RMS(Int)=    0.7446742956
 Iter   5:  RMS(Cart)=    0.0000007550 RMS(Int)=    0.0000006113
done
Storing new coordinates                 .... done

                                .--------------------.
          ----------------------|Geometry convergence|-------------------------
          Item                value                   Tolerance       Converged
          ---------------------------------------------------------------------
          RMS gradient        0.0050899252            0.0001000000      NO
          MAX gradient        0.0251349414            0.0003000000      NO
          RMS step            0.0244941982            0.0020000000      NO
          MAX step            0.0773807108            0.0040000000      NO
          -------------------------------------------------------------------------
          ........................................................
          Max(Bonds)      0.0122      Max(Angles)    4.43
          Max(Dihed)        3.26      Max(Improp)    0.00
          ---------------------------------------------------------------------

The optimization has not yet converged - more geometry cycles are needed


    ---------------------------------------------------------------------------
                         Redundant Internal Coordinates
                            (Angstroem and degrees)

        Definition                    Value    dE/dq     Step     New-Value
    ----------------------------------------------------------------------------
     1. B(C   1,C   0)                1.5204 -0.007549  0.0102    1.5305   
     2. B(C   2,C   1)                1.5285 -0.008721  0.0121    1.5405   
     3. B(C   3,C   2)                1.5285 -0.008789  0.0122    1.5406   
     4. B(C   4,C   3)                1.5204 -0.007595  0.0102    1.5306   
     5. B(H   5,C   0)                1.0947 -0.000838  0.0012    1.0959   
     6. B(H   6,C   0)                1.0947  0.001185 -0.0017    1.0929   
     7. B(H   7,C   0)                1.0945 -0.000452  0.0007    1.0952   
     8. B(H   8,C   1)                1.0962  0.000760 -0.0011    1.0951   
     9. B(H   9,C   1)                1.0962 -0.000626  0.0009    1.0972   
    10. B(H  10,C   2)                1.0969 -0.001114  0.0016    1.0985   
    11. B(H  11,C   2)                1.0969 -0.001139  0.0017    1.0986   
    12. B(H  12,C   3)                1.0962 -0.000610  0.0009    1.0971   
    13. B(H  13,C   3)                1.0962  0.000701 -0.0010    1.0952   
    14. B(H  14,C   4)                1.0947 -0.000848  0.0012    1.0959   
    15. B(H  15,C   4)                1.0947  0.001098 -0.0016    1.0931   
    16. B(H  16,C   4)                1.0945 -0.000470  0.0007    1.0952   
    17. A(C   1,C   0,H   7)          110.26 -0.002333    0.41    110.67   
    18. A(H   5,C   0,H   6)          108.31  0.001558   -0.26    108.05   
    19. A(C   1,C   0,H   5)          111.00  0.000242   -0.02    110.98   
    20. A(C   1,C   0,H   6)          111.00 -0.003378    0.61    111.61   
    21. A(H   5,C   0,H   7)          108.08  0.001187   -0.23    107.85   
    22. A(H   6,C   0,H   7)          108.08  0.002977   -0.56    107.52   
    23. A(C   0,C   1,C   2)          111.50 -0.013547    2.59    114.09   
    24. A(C   0,C   1,H   8)          109.14  0.002932    0.14    109.29   
    25. A(H   8,C   1,H   9)          107.22  0.001507   -1.32    105.90   
    26. A(C   2,C   1,H   8)          109.87  0.002680    0.09    109.96   
    27. A(C   0,C   1,H   9)          109.14  0.003786   -0.64    108.50   
    28. A(C   2,C   1,H   9)          109.87  0.003252   -1.01    108.85   
    29. A(C   1,C   2,H  10)          109.58  0.008588   -1.11    108.47   
    30. A(C   1,C   2,C   3)          111.33 -0.025135    4.43    115.76   
    31. A(C   3,C   2,H  11)          109.58  0.004619   -1.01    108.56   
    32. A(C   1,C   2,H  11)          109.58  0.006948   -0.77    108.80   
    33. A(C   3,C   2,H  10)          109.58  0.006346   -0.79    108.78   
    34. A(H  10,C   2,H  11)          107.10 -0.000339   -0.96    106.14   
    35. A(C   2,C   3,C   4)          111.50 -0.014443    2.59    114.09   
    36. A(H  12,C   3,H  13)          107.22  0.003009   -1.28    105.94   
    37. A(C   4,C   3,H  13)          109.14 -0.001231    0.31    109.46   
    38. A(C   2,C   3,H  13)          109.87  0.003314    0.16    110.02   
    39. A(C   4,C   3,H  12)          109.14  0.003138   -0.66    108.48   
    40. A(C   2,C   3,H  12)          109.87  0.006863   -1.26    108.60   
    41. A(H  15,C   4,H  16)          108.08  0.002097   -0.40    107.68   
    42. A(H  14,C   4,H  16)          108.08  0.002123   -0.41    107.67   
    43. A(C   3,C   4,H  16)          110.26 -0.002292    0.40    110.66   
    44. A(H  14,C   4,H  15)          108.31  0.001611   -0.26    108.05   
    45. A(C   3,C   4,H  15)          111.00 -0.003921    0.70    111.71   
    46. A(C   3,C   4,H  14)          111.00  0.000640   -0.08    110.92   
    47. D(H   8,C   1,C   0,H   7)    -58.44 -0.000972   -1.33    -59.77   
    48. D(H   8,C   1,C   0,H   5)   -178.18 -0.001088   -1.30   -179.48   
    49. D(C   2,C   1,C   0,H   7)   -180.00  0.002478   -3.22   -183.22   
    50. D(C   2,C   1,C   0,H   5)     60.26  0.002362   -3.20     57.06   
    51. D(H   8,C   1,C   0,H   6)     61.30 -0.000951   -1.36     59.93   
    52. D(C   2,C   1,C   0,H   6)    -60.26  0.002499   -3.26    -63.52   
    53. D(C   3,C   2,C   1,C   0)     60.00 -0.001748    0.88     60.88   
    54. D(H  10,C   2,C   1,H   9)     59.76 -0.001022   -0.06     59.70   
    55. D(H  10,C   2,C   1,H   8)    177.49  0.004364   -2.22    175.26   
    56. D(H  10,C   2,C   1,C   0)    -61.38  0.000939   -0.27    -61.65   
    57. D(C   3,C   2,C   1,H   9)   -178.86 -0.003708    1.10   -177.77   
    58. D(C   3,C   2,C   1,H   8)    -61.14  0.001677   -1.07    -62.20   
    59. D(C   4,C   3,C   2,H  11)    -61.38  0.004101   -1.53    -62.91   
    60. D(C   4,C   3,C   2,H  10)   -178.62 -0.001883    0.69   -177.93   
    61. D(C   4,C   3,C   2,C   1)     60.00 -0.000504   -0.28     59.72   
    62. D(H  12,C   3,C   2,H  11)     59.76  0.003182   -1.51     58.25   
    63. D(H  12,C   3,C   2,H  10)    -57.49 -0.002802    0.71    -56.78   
    64. D(H  12,C   3,C   2,C   1)   -178.86 -0.001423   -0.27   -179.13   
    65. D(H  15,C   4,C   3,H  13)     61.30 -0.002790   -1.00     60.30   
    66. D(H  15,C   4,C   3,H  12)    178.19  0.001898   -2.73    175.45   
    67. D(H  15,C   4,C   3,C   2)    -60.26  0.003258   -3.09    -63.35   
    68. D(H  14,C   4,C   3,H  13)   -178.18 -0.002957   -0.91   -179.09   
    69. D(H  14,C   4,C   3,H  12)    -61.29  0.001731   -2.64    -63.94   
    70. D(H  14,C   4,C   3,C   2)     60.26  0.003090   -2.99     57.27   
    ----------------------------------------------------------------------------

Geometry step timings:
Preparation and reading OPT file:      0.000 s ( 2.617 %)
Internal coordinates            :      0.000 s ( 2.771 %)
B/P matrices and projection     :      0.000 s (37.490 %)
Hessian update/contruction      :      0.000 s (11.085 %)
Making the step                 :      0.000 s (21.786 %)
Converting the step to Cartesian:      0.000 s ( 3.541 %)
Storing new data                :      0.000 s ( 1.771 %)
Checking convergence            :      0.000 s ( 1.771 %)
Final printing                  :      0.000 s (17.167 %)
Total time                      :      0.001 s
Authorization required, but no authorization protocol specified

Time for energy+gradient        :      3.095 s
Time for complete geometry iter :      3.298 s

         *************************************************************
         *                GEOMETRY OPTIMIZATION CYCLE   2            *
         *************************************************************
---------------------------------
CARTESIAN COORDINATES (ANGSTROEM)
---------------------------------
  C      2.590150   -0.132305    0.103449
  C      1.210870   -0.723126   -0.198316
  C      0.064123    0.304704   -0.156028
  C      0.168343    1.465608   -1.163491
  C      0.203645    1.020533   -2.627525
  H      2.600334    0.360404    1.082311
  H      2.886434    0.603059   -0.648870
  H      3.353137   -0.917853    0.115028
  H      1.234924   -1.215400   -1.176246
  H      1.003979   -1.515469    0.531845
  H      0.007805    0.721320    0.858875
  H     -0.886862   -0.219080   -0.323747
  H     -0.693272    2.129965   -1.022272
  H      1.054087    2.071763   -0.945584
  H     -0.681695    0.424614   -2.876768
  H      1.089557    0.418603   -2.845812
  H      0.218737    1.888658   -3.295027

----------------------------
CARTESIAN COORDINATES (A.U.)
----------------------------
  NO LB      ZA    FRAG     MASS         X           Y           Z
   0 C     6.0000    0    12.011    4.894674   -0.250020    0.195490
   1 C     6.0000    0    12.011    2.288212   -1.366511   -0.374763
   2 C     6.0000    0    12.011    0.121174    0.575808   -0.294850
   3 C     6.0000    0    12.011    0.318121    2.769598   -2.198679
   4 C     6.0000    0    12.011    0.384833    1.928527   -4.965303
   5 H     1.0000    0     1.008    4.913920    0.681064    2.045271
   6 H     1.0000    0     1.008    5.454570    1.139617   -1.226187
   7 H     1.0000    0     1.008    6.336510   -1.734491    0.217371
   8 H     1.0000    0     1.008    2.333669   -2.296774   -2.222782
   9 H     1.0000    0     1.008    1.897246   -2.863821    1.005042
  10 H     1.0000    0     1.008    0.014750    1.363098    1.623039
  11 H     1.0000    0     1.008   -1.675926   -0.414002   -0.611794
  12 H     1.0000    0     1.008   -1.310095    4.025051   -1.931814
  13 H     1.0000    0     1.008    1.991935    3.915064   -1.786895
  14 H     1.0000    0     1.008   -1.288216    0.802404   -5.436303
  15 H     1.0000    0     1.008    2.058964    0.791046   -5.377805
  16 H     1.0000    0     1.008    0.413353    3.569046   -6.226698

--------------------------------
INTERNAL COORDINATES (ANGSTROEM)
--------------------------------
 C      0   0   0     0.000000000000     0.00000000     0.00000000
 C      1   0   0     1.530538109002     0.00000000     0.00000000
 C      2   1   0     1.540536635677   114.07015201     0.00000000
 C      3   2   1     1.540629990400   115.74957176    60.88856901
 C      4   3   2     1.530599700909   114.07526558    59.71944824
 H      1   2   3     1.095917713129   110.97912831    57.05876603
 H      1   2   3     1.092944872365   111.61132031   296.47527500
 H      1   2   3     1.095156582327   110.67299230   176.76897162
 H      2   1   3     1.095106757459   109.25642625   123.46329388
 H      2   1   3     1.097153274615   108.51175242   238.47617069
 H      3   2   1     1.098530654344   108.45456222   298.36426319
 H      3   2   1     1.098568049677   108.78879537   183.36964114
 H      4   3   2     1.097129588843   108.60202865   180.85662096
 H      4   3   2     1.095193724619   109.97759227   296.34977065
 H      5   4   3     1.095932136940   110.91717052    57.25497751
 H      5   4   3     1.093072635783   111.70553473   296.64376005
 H      5   4   3     1.095183299762   110.65876000   176.68741113

---------------------------
INTERNAL COORDINATES (A.U.)
[...]
     48       0.001189  -0.000713  -0.000749   0.006822   0.005815  -0.014488
     49      -0.272813  -0.057290  -0.009128   0.005596  -0.067440   0.193767
     50       0.202436   0.047067   0.006141  -0.005150   0.052500  -0.150586
                 48         49         50    
      0       0.024406   0.025076   0.015217
      1      -0.024149  -0.063984  -0.045660
      2      -0.050196   0.021712   0.028162
      3       0.001570  -0.001253  -0.001663
      4      -0.000826  -0.006969  -0.004518
      5      -0.018102   0.002759   0.012830
      6       0.001501  -0.000924  -0.001647
      7       0.000257  -0.000423  -0.000212
      8      -0.000968  -0.000935   0.001370
      9       0.018019   0.002312  -0.014762
     10       0.003576  -0.005280   0.004280
     11       0.002193  -0.001273  -0.000067
     12       0.049436   0.022396  -0.040322
     13       0.038905  -0.049263   0.054877
     14      -0.013996   0.016662  -0.019008
     15       0.010011   0.006335   0.002405
     16       0.239883   0.037933  -0.024022
     17       0.426615   0.097915  -0.018682
     18      -0.067058   0.124005   0.112965
     19      -0.191364   0.294195   0.272286
     20       0.196366  -0.341393  -0.310057
     21      -0.232430  -0.429902  -0.296307
     22       0.239382   0.435529   0.299778
     23      -0.022105  -0.015744  -0.008253
     24       0.002816  -0.000444  -0.000274
     25       0.074835   0.013894  -0.037868
     26       0.146768   0.027673  -0.072007
     27      -0.018905   0.016584   0.022682
     28      -0.070818   0.061629   0.085318
     29       0.066596  -0.058773  -0.081642
     30      -0.003609  -0.000877   0.000831
     31       0.008087   0.003220  -0.006132
     32       0.015202   0.008589  -0.014837
     33      -0.017724   0.009651   0.014199
     34      -0.011829   0.004873   0.008021
     35      -0.000746   0.001656   0.002680
     36      -0.074275  -0.051798   0.113040
     37       0.057665   0.039752  -0.086344
     38       0.012598   0.008777  -0.018556
     39      -0.138488   0.026867   0.062153
     40      -0.093101   0.018115   0.043145
     41      -0.040096   0.006552   0.017392
     42      -0.401101   0.055675   0.025156
     43      -0.295913   0.026446   0.037377
     44      -0.121796   0.018256   0.006362
     45      -0.203816  -0.325127   0.462582
     46       0.143371   0.195181  -0.282532
     47       0.042603   0.071476  -0.102596
     48       0.013417   0.001757  -0.004941
     49      -0.311861   0.369632  -0.413479
     50       0.243986  -0.288814   0.322733


-----------
IR SPECTRUM
-----------

 Mode   freq       eps      Int      T**2         TX        TY        TZ
       cm**-1   L/(mol*cm) km/mol    a.u.
----------------------------------------------------------------------------
  6:     97.44   0.000000    0.00  0.000000  (-0.000017 -0.000087  0.000060)
  7:    163.99   0.000007    0.04  0.000013  (-0.002211 -0.000416 -0.002874)
  8:    251.13   0.000000    0.00  0.000000  (-0.000067  0.000038  0.000168)
  9:    273.39   0.000004    0.02  0.000005  (-0.001609 -0.000225  0.001378)
 10:    306.07   0.000006    0.03  0.000006  ( 0.000873 -0.002282  0.000596)
 11:    384.79   0.000051    0.26  0.000041  (-0.002042  0.005873 -0.001639)
 12:    488.21   0.000055    0.28  0.000035  (-0.004549 -0.000513  0.003781)
 13:    728.83   0.001469    7.42  0.000629  (-0.015795  0.006689 -0.018291)
 14:    778.96   0.000296    1.49  0.000118  (-0.008376 -0.000851  0.006898)
 15:    844.17   0.000279    1.41  0.000103  ( 0.007780  0.000808 -0.006480)
 16:    868.40   0.000041    0.21  0.000015  ( 0.000428 -0.003800  0.000117)
 17:    905.89   0.000995    5.03  0.000343  ( 0.006711 -0.016261  0.005775)
 18:   1004.34   0.000000    0.00  0.000000  (-0.000221 -0.000125  0.000297)
 19:   1019.21   0.000280    1.41  0.000086  ( 0.007432  0.000264 -0.005511)
 20:   1021.78   0.000118    0.60  0.000036  (-0.002098  0.004491 -0.003396)
 21:   1097.53   0.000072    0.36  0.000020  ( 0.002644  0.001534  0.003339)
 22:   1156.21   0.000048    0.24  0.000013  (-0.002749 -0.000356  0.002319)
 23:   1173.23   0.000470    2.37  0.000125  (-0.001482  0.011074 -0.000227)
 24:   1270.17   0.000040    0.20  0.000010  ( 0.002398  0.000206 -0.002037)
 25:   1281.58   0.000146    0.74  0.000035  (-0.001403  0.005695 -0.001036)
 26:   1329.16   0.000184    0.93  0.000043  ( 0.005002  0.000608 -0.004228)
 27:   1352.87   0.000414    2.09  0.000095  ( 0.005669 -0.005022  0.006173)
 28:   1377.87   0.000113    0.57  0.000026  ( 0.000783  0.004706  0.001700)
 29:   1382.88   0.000055    0.28  0.000012  ( 0.002792  0.000370 -0.002097)
 30:   1403.92   0.001112    5.62  0.000247  (-0.012035 -0.001280  0.010039)
 31:   1407.54   0.002363   11.94  0.000524  ( 0.013994  0.004892  0.017442)
 32:   1470.55   0.000022    0.11  0.000005  (-0.001668 -0.000114  0.001384)
 33:   1483.97   0.000423    2.14  0.000089  ( 0.007399  0.001303 -0.005709)
 34:   1484.56   0.001512    7.64  0.000318  (-0.005955 -0.013795 -0.009592)
 35:   1491.95   0.003538   17.88  0.000740  ( 0.008646 -0.024812  0.007053)
 36:   1498.12   0.001830    9.25  0.000381  ( 0.015022  0.001808 -0.012339)
 37:   1502.80   0.000324    1.64  0.000067  (-0.004335  0.005095 -0.004740)
 38:   1510.95   0.001241    6.27  0.000256  ( 0.012209  0.001465 -0.010249)
 39:   2989.56   0.005165   26.10  0.000539  (-0.017931 -0.001967  0.014619)
 40:   3002.99   0.003527   17.83  0.000367  (-0.006876  0.016869 -0.005892)
 41:   3006.61   0.002845   14.38  0.000295  (-0.013445 -0.001963  0.010519)
 42:   3009.04   0.009244   46.72  0.000959  (-0.010698 -0.023258 -0.017416)
 43:   3010.49   0.000534    2.70  0.000055  (-0.006125 -0.003423  0.002467)
 44:   3034.19   0.004445   22.46  0.000457  (-0.003852 -0.019783 -0.007136)
 45:   3046.54   0.003289   16.62  0.000337  (-0.013187 -0.000914  0.012736)
 46:   3053.36   0.008061   40.74  0.000824  (-0.018111 -0.005556 -0.021563)
 47:   3087.00   0.005314   26.85  0.000537  (-0.012790 -0.007534 -0.017800)
 48:   3088.43   0.008433   42.62  0.000852  ( 0.021890  0.004123 -0.018866)
 49:   3094.24   0.011585   58.55  0.001168  ( 0.012948 -0.029637  0.011063)
 50:   3094.85   0.001137    5.75  0.000115  (-0.009359  0.002283  0.004674)

* The epsilon (eps) is given for a Dirac delta lineshape.
** The dipole moment derivative (T) already includes vibrational overlap.

The first frequency considered to be a vibration is 6
The total number of vibrations considered is 45


--------------------------
THERMOCHEMISTRY AT 298.15K
--------------------------

Temperature         ...   298.15 K
Pressure            ...     1.00 atm
Total Mass          ...    72.15 AMU
Quasi RRHO          ...     True
Cut-Off Frequency   ...     1.00 cm^-1

Throughout the following assumptions are being made:
  (1) The electronic state is orbitally nondegenerate
  (2) There are no thermally accessible electronically excited states
  (3) Hindered rotations indicated by low frequency modes are not
      treated as such but are treated as vibrations and this may
      cause some error
  (4) All equations used are the standard statistical mechanics
      equations for an ideal gas
  (5) All vibrations are strictly harmonic

freq.      97.44  E(vib)   ...       0.46 
freq.     163.99  E(vib)   ...       0.39 
freq.     251.13  E(vib)   ...       0.30 
freq.     273.39  E(vib)   ...       0.29 
freq.     306.07  E(vib)   ...       0.26 
freq.     384.79  E(vib)   ...       0.20 
freq.     488.21  E(vib)   ...       0.15 
freq.     728.83  E(vib)   ...       0.06 
freq.     778.96  E(vib)   ...       0.05 
freq.     844.17  E(vib)   ...       0.04 
freq.     868.40  E(vib)   ...       0.04 
freq.     905.89  E(vib)   ...       0.03 
freq.    1004.34  E(vib)   ...       0.02 
freq.    1019.21  E(vib)   ...       0.02 
freq.    1021.78  E(vib)   ...       0.02 
freq.    1097.53  E(vib)   ...       0.02 
freq.    1156.21  E(vib)   ...       0.01 
freq.    1173.23  E(vib)   ...       0.01 
freq.    1270.17  E(vib)   ...       0.01 
freq.    1281.58  E(vib)   ...       0.01 
freq.    1329.16  E(vib)   ...       0.01 
freq.    1352.87  E(vib)   ...       0.01 
freq.    1377.87  E(vib)   ...       0.01 
freq.    1382.88  E(vib)   ...       0.01 
freq.    1403.92  E(vib)   ...       0.00 
freq.    1407.54  E(vib)   ...       0.00 
freq.    1470.55  E(vib)   ...       0.00 
freq.    1483.97  E(vib)   ...       0.00 
freq.    1484.56  E(vib)   ...       0.00 
freq.    1491.95  E(vib)   ...       0.00 
freq.    1498.12  E(vib)   ...       0.00 
freq.    1502.80  E(vib)   ...       0.00 
freq.    1510.95  E(vib)   ...       0.00 
freq.    2989.56  E(vib)   ...       0.00 
freq.    3002.99  E(vib)   ...       0.00 
freq.    3006.61  E(vib)   ...       0.00 
freq.    3009.04  E(vib)   ...       0.00 
freq.    3010.49  E(vib)   ...       0.00 
freq.    3034.19  E(vib)   ...       0.00 
freq.    3046.54  E(vib)   ...       0.00 
freq.    3053.36  E(vib)   ...       0.00 
freq.    3087.00  E(vib)   ...       0.00 
freq.    3088.43  E(vib)   ...       0.00 
freq.    3094.24  E(vib)   ...       0.00 
freq.    3094.85  E(vib)   ...       0.00 

------------
INNER ENERGY
------------

The inner energy is: U= E(el) + E(ZPE) + E(vib) + E(rot) + E(trans)
    E(el)   - is the total energy from the electronic structure calculation
              = E(kin-el) + E(nuc-el) + E(el-el) + E(nuc-nuc)
    E(ZPE)  - the the zero temperature vibrational energy from the frequency calculation
    E(vib)  - the the finite temperature correction to E(ZPE) due to population
              of excited vibrational states
    E(rot)  - is the rotational thermal energy
    E(trans)- is the translational thermal energy

Summary of contributions to the inner energy U:
Electronic energy                ...   -197.69139991 Eh
Zero point energy                ...      0.16022298 Eh     100.54 kcal/mol
Thermal vibrational correction   ...      0.00391309 Eh       2.46 kcal/mol
Thermal rotational correction    ...      0.00141627 Eh       0.89 kcal/mol
Thermal translational correction ...      0.00141627 Eh       0.89 kcal/mol
-----------------------------------------------------------------------
Total thermal energy                   -197.52443130 Eh


Summary of corrections to the electronic energy:
(perhaps to be used in another calculation)
Total thermal correction                  0.00674563 Eh       4.23 kcal/mol
Non-thermal (ZPE) correction              0.16022298 Eh     100.54 kcal/mol
-----------------------------------------------------------------------
Total correction                          0.16696861 Eh     104.77 kcal/mol


--------
ENTHALPY
--------

The enthalpy is H = U + kB*T
                kB is Boltzmann's constant
Total thermal energy              ...   -197.52443130 Eh 
Thermal Enthalpy correction       ...      0.00094421 Eh       0.59 kcal/mol
-----------------------------------------------------------------------
Total Enthalpy                    ...   -197.52348709 Eh


Note: Only C1 symmetry has been detected, increase convergence thresholds 
      if your molecule has a higher symmetry. Symmetry factor of 1.0 is   
      used for the rotational entropy correction. 
 

Note: Rotational entropy computed according to Herzberg 
Infrared and Raman Spectra, Chapter V,1, Van Nostrand Reinhold, 1945 
Point Group:  C1, Symmetry Number:   1  
Rotational constants in cm-1:     0.252557     0.099284     0.089802 

Vibrational entropy computed according to the QRRHO of S. Grimme
Chem.Eur.J. 2012 18 9955 using a reference frequency of 100.0 cm-1


-------
ENTROPY
-------

The entropy contributions are T*S = T*(S(el)+S(vib)+S(rot)+S(trans))
     S(el)   - electronic entropy
     S(vib)  - vibrational entropy
     S(rot)  - rotational entropy
     S(trans)- translational entropy
The entropies will be listed as multiplied by the temperature to get
units of energy

Electronic entropy                ...      0.00000000 Eh      0.00 kcal/mol
Vibrational entropy               ...      0.00652228 Eh      4.09 kcal/mol
Rotational entropy                ...      0.01238869 Eh      7.77 kcal/mol
Translational entropy             ...      0.01840896 Eh     11.55 kcal/mol
-----------------------------------------------------------------------
Final entropy term                ...      0.03731993 Eh     23.42 kcal/mol

In case the symmetry of your molecule has not been determined correctly
or in case you have a reason to use a different symmetry number we print 
out the resulting rotational entropy values for sn=1,12:

 non-linear molecules -----------------------------------
|  sn= 1 | S(rot)=       0.01238869 Eh      7.77 kcal/mol|
|  sn= 2 | S(rot)=       0.01173424 Eh      7.36 kcal/mol|
|  sn= 3 | S(rot)=       0.01135140 Eh      7.12 kcal/mol|
|  sn= 4 | S(rot)=       0.01107978 Eh      6.95 kcal/mol|
|  sn= 5 | S(rot)=       0.01086909 Eh      6.82 kcal/mol|
|  sn= 6 | S(rot)=       0.01069695 Eh      6.71 kcal/mol|
|  sn= 7 | S(rot)=       0.01055140 Eh      6.62 kcal/mol|
|  sn= 8 | S(rot)=       0.01042532 Eh      6.54 kcal/mol|
|  sn= 9 | S(rot)=       0.01031411 Eh      6.47 kcal/mol|
|  sn=10 | S(rot)=       0.01021464 Eh      6.41 kcal/mol|
|  sn=11 | S(rot)=       0.01012465 Eh      6.35 kcal/mol|
|  sn=12 | S(rot)=       0.01004249 Eh      6.30 kcal/mol|
 linear molecules ---------------------------------------
|  Dinfh | S(rot)=       0.00760143 Eh      4.77 kcal/mol|
|  Cinfv | S(rot)=       0.00825588 Eh      5.18 kcal/mol|
 --------------------------------------------------------


-------------------
GIBBS FREE ENERGY
-------------------

The Gibbs free energy is G = H - T*S

Total enthalpy                    ...   -197.52348709 Eh 
Total entropy correction          ...     -0.03731993 Eh    -23.42 kcal/mol
-----------------------------------------------------------------------
Final Gibbs free energy         ...   -197.56080703 Eh

For completeness - the Gibbs free energy minus the electronic energy
G-E(el)                           ...      0.13059289 Eh     81.95 kcal/mol


Maximum memory used throughout the entire PROP-calculation: 28.3 MB
Authorization required, but no authorization protocol specified

--------------------------------
SUGGESTED CITATIONS FOR THIS RUN
--------------------------------

Below you find a list of papers that are relevant to this ORCA run
We neither can nor want to force you to cite these papers, but we appreciate if you do
You receive ORCA, which is the product of decades of hard work by many enthusiastic individuals, for free
The only thing we kindly ask in return is that you cite our papers,
We deeply appreciate it, if you show your appreciation for ORCA by not just citing the generic ORCA reference.

Please note that relegating all ORCA citations to the supporting information does *not* help us.
SI sections are not indexed - citations you put there will not count into any citation statistics
But we need these citations in order to attract the funding resources that allow us to do what we are doing

Therefore, if you are a happy ORCA user, please consider citing a few of the papers listed below in the main body of your paper

In addition to the list printed below, the program has created the file pentane_GG.bibtex that contains the list in bibtex format
You can import this file easily into all common literature databanks and citation aid programs


List of essential papers. We consider these as the minimum necessary citations

  1. Grimme, S.; Hansen, A.; Ehlert, S.; Mewes, J.
     r2SCAN-3c: A 'Swiss army knife' composite electronic-structure method
     J. Chem. Phys. 2021 154 , 064103
     doi.org/10.1063/5.0040021
  2. Neese, F.
     Software update: the ORCA program system, version 6.0
     WIRES Comput. Molec. Sci. 2025 15(1), e70019
     doi.org/10.1002/wcms.7019

List of papers to cite with high priority. The work reported in these papers was absolutely
necessary for this run to complete.
Our perspective: the developers of density functionals and basis sets usually get cited in chemistry papers
Good! But without the algorithms to do something with them, the functionals or basis sets would not do anything.
Hence, in our opinion, the algorithm design and method developments papers are equally worthy of getting cited

  1. Neese, F.
     An improvement of the resolution of the identity approximation for the formation of the Coulomb matrix
     J. Comp. Chem. 2003 24(14), 1740-1747
     doi.org/10.1002/jcc.10318
  2. Bykov, D.; Petrenko, T.; Izsak, R.; Kossmann, S.; Becker, U.; Valeev, E.; Neese, F.
     Efficient implementation of the analytic second derivatives of Hartree-Fock and hybrid DFT energies: a detailed analysis of different approximations
     Molec. Phys. 2015 113 , 1961-1977
     doi.org/10.1080/00268976.2015.1025114
  3. Caldeweyher, E.; Bannwarth, C.; Grimme, S.
     Extension of the D3 dispersion coefficient model
     J. Chem. Phys. 2017 147 , 034112
     doi.org/10.1063/1.4993215
  4. Lehtola, S.; Steigemann, C.; Oliveira, M.; Marques, M.
     Recent developments in Libxc - A comprehensive library of functionals for density functional theory
     Software X 2018 7 , 
     doi.org/10.1016/j.softx.2017.11.002
  5. Caldeweyher, E.; Ehlert, S.; Hansen, A.; Neugebauer, H.; Spicher, S.; Bannwarth, C.; Grimme, S.
     A generally applicable atomic-charge dependent London dispersion correction
     J. Chem. Phys. 2019 150 , 154122
     doi.org/10.1063/1.5090222
  6. Caldeweyher, E.; Mewes, J.; Ehlert, S.; Grimme, S.
     Extension and evaluation of the D4 London-dispersion model for periodic systems
     Phys. Chem. Chem. Phys. 2020 22(16), 8499-8512
     doi.org/10.1039/D0CP00502A
  7. Neese, F.
     The SHARK Integral Generation and Digestion System
     J. Comp. Chem. 2022 44(3), 381
     doi.org/10.1002/jcc.26942
  8. Wittmann, L.; Gordiy, I.; Friede, M.; Helmich-Paris, B.; Grimme, S.; Hansen, A.; Bursch, M.
     Extension of the D3 and D4 London Dispersion Corrections to the full Actinides Series
     Phys. Chem. Chem. Phys. 2024 26(32), 21379-21394
     doi.org/10.1039/D4CP01514B

List of suggested additional citations. These are papers that are important in the 'surrounding' of 
of this run, or papers that preceded the highly important papers. If you like your results we are grateful for a citation.

  1. Neese, F.
     The ORCA program system
     WIRES Comput. Molec. Sci. 2012 2(1), 73-78
     doi.org/10.1002/wcms.81
  2. Neese, F.
     Software update: the ORCA program system, version 4.0
     WIRES Comput. Molec. Sci. 2018 8(1), 1-6
     doi.org/10.1002/wcms.1327
  3. Neese, F.; Wennmohs, F.; Becker, U.; Riplinger, C.
     The ORCA quantum chemistry program package
     J. Chem. Phys. 2020 152(22), 224108
     doi.org/10.1063/5.0004608
  4. Neese, F.
     Software update: The ORCA program system—Version 5.0
     WIRES Comput. Molec. Sci. 2022 12(1), e1606
     doi.org/10.1002/wcms.1606

List of optional additional citations

  1. Neese, F.
     Approximate second-order SCF convergence for spin unrestricted wavefunctions
     Chem. Phys. Lett. 2000 325(1-3), 93-98
     doi.org/10.1016/s0009-2614(00)00662-x

Timings for individual modules:

Sum of individual times          ...       33.991 sec (=   0.567 min)
Startup calculation              ...        2.911 sec (=   0.049 min)   8.6 %
SCF iterations                   ...        8.804 sec (=   0.147 min)  25.9 %
Property integrals               ...       10.233 sec (=   0.171 min)  30.1 %
SCF Response                     ...        4.528 sec (=   0.075 min)  13.3 %
Property calculations            ...        4.187 sec (=   0.070 min)  12.3 %
SCF Gradient evaluation          ...        3.313 sec (=   0.055 min)   9.7 %
Geometry relaxation              ...        0.015 sec (=   0.000 min)   0.0 %
                             ****ORCA TERMINATED NORMALLY****
TOTAL RUN TIME: 0 days 0 hours 0 minutes 35 seconds 693 msec
