
                                 *****************
                                 * O   R   C   A *
                                 *****************

                                            #,                                       
                                            ###                                      
                                            ####                                     
                                            #####                                    
                                            ######                                   
                                           ########,                                 
                                     ,,################,,,,,                         
                               ,,#################################,,                 
                          ,,##########################################,,             
                       ,#########################################, ''#####,          
                    ,#############################################,,   '####,        
                  ,##################################################,,,,####,       
                ,###########''''           ''''###############################       
              ,#####''   ,,,,##########,,,,          '''####'''          '####       
            ,##' ,,,,###########################,,,                        '##       
           ' ,,###''''                  '''############,,,                           
         ,,##''                                '''############,,,,        ,,,,,,###''
      ,#''                                            '''#######################'''  
     '                                                          ''''####''''         
             ,#######,   #######,   ,#######,      ##                                
            ,#'     '#,  ##    ##  ,#'     '#,    #''#        ,####,    ,#,          
            ##       ##  ##   ,#'  ##            #'  '#       #'       ,# #          
            ##       ##  #######   ##           ,######,      #####,      #          
            '#,     ,#'  ##    ##  '#,     ,#' ,#      #,     #,   #      #          
             '#######'   ##     ##  '#######'  #'      '#     '####' #    #          



                #########################################################
                #                        -***-                          #
                #          Department of theory and spectroscopy        #
                #                                                       #
                #                      Frank Neese                      #
                #                                                       #
                #     Directorship, Architecture, Infrastructure        #
                #                    SHARK, DRIVERS                     #
                #        Core code/Algorithms in most modules           #
                #                                                       #
                #        Max Planck Institute fuer Kohlenforschung      #
                #                Kaiser Wilhelm Platz 1                 #
                #                 D-45470 Muelheim/Ruhr                 #
                #                      Germany                          #
                #                                                       #
                #                  All rights reserved                  #
                #                        -***-                          #
                #########################################################


                         Program Version 6.1.0  -  RELEASE   -
                                (GIT: $679e74b$)
                          ($2025-06-10 18:02:51 +0200$)


 With contributions from (in alphabetic order):
[Max-Planck-Institut fuer Kohlenforschung]                               
  Daniel Aravena         : Magnetic Suceptibility                        
  Michael Atanasov       : Ab Initio Ligand Field Theory (pilot matlab implementation)
  Alexander A. Auer      : GIAO ZORA, VPT2 properties, NMR spectrum      
  Ute Becker             : All parallelization in ORCA, NUMFREQ, NUMCALC 
  Giovanni Bistoni       : ED, misc. LED, open-shell LED, HFLD           
  Dmytro Bykov           : pre 5.0 version of the SCF Hessian            
  Marcos Casanova-Páez   : Triplet and SCS-CIS(D). UHF-(DLPNO)-IP/EA/STEOM-CCSD. UHF-CVS-IP/STEOM-CCSD   
  Vijay G. Chilkuri      : MRCI spin determinant printing, contributions to CSF-ICE 
  Pauline Colinet        : FMM embedding                                 
  Dipayan Datta          : RHF DLPNO-CCSD density                        
  Achintya Kumar Dutta   : EOM-CC, STEOM-CC                              
  Nicolas Foglia         : Exact transition moments, OPA infrastructure, MCD improvements    
  Dmitry Ganyushin       : Spin-Orbit,Spin-Spin,Magnetic field MRCI      
  Miquel Garcia-Rates    : C-PCM and meta-GGA Hessian, CCSD/C-PCM, Gaussian charge scheme 
  Tiago L. C. Gouveia    : GS-ROHF, GS-ROCIS                             
  Yang Guo               : DLPNO-NEVPT2, F12-NEVPT2, CIM, IAO-localization        
  Andreas Hansen         : Spin unrestricted coupled pair/coupled cluster methods 
  Ingolf Harden          : AUTO-CI MPn and infrastructure                
  Benjamin Helmich-Paris : MC-RPA, TRAH-(SCF,CASSCF), AVAS, COSX integrals, SCF dyn. polar., MC-PDFT, srDFT 
  Lee Huntington         : MR-EOM, pCC                                   
  Robert Izsak           : Overlap fitted RIJCOSX, COSX-SCS-MP3, EOM     
  Riya Kayal             : Wick's Theorem for AUTO-CI, AUTO-CI UHF-CCSDT 
  Emily Kempfer          : AUTO-CI RHF CISDT and CCSDT, approximate NEVPT4
  Christian Kollmar      : KDIIS, OOCD, Brueckner-CCSD(T), CCSD density, CASPT2, CASPT2-K, improved NEVPT2 
  Axel Koslowski         : Symmetry handling                             
  Simone Kossmann        : meta-GGA functionals, TD-DFT gradient, OOMP2, (MP2 Hessian; deprecated post 5.0) 
  Lucas Lang             : DCDCAS, Hyperfine gauge corrections, ICE-SOC+SSC
  Marvin Lechner         : AUTO-CI (C++ implementation), FIC-MRCC        
  Spencer Leger          : CASSCF response                               
  Dagmar Lenk            : GEPOL surface, SMD, ORCA-2-JSON               
  Dimitrios Liakos       : Extrapolation schemes; Compound Job, Property file
  Dimitrios Manganas     : Further ROCIS development; embedding schemes. LFT, Crystal Embedding 
  Dimitrios Pantazis     : SARC Basis sets                               
  Anastasios Papadopoulos: AUTO-CI, single reference methods and gradients 
  Taras Petrenko         : pre 6.0 DFT Hessian and TD-DFT gradient,  ECA, NRVS 
  Petra Pikulova         : Analytic Raman intensities                    
  Peter Pinski           : DLPNO-MP2, DLPNO-MP2 Gradient                 
  Shashank Vittal Rao    : ES-AILFT, MagRelax                            
  Christoph Reimann      : Effective Core Potentials                     
  Marius Retegan         : Local ZFS, SOC                                
  Christoph Riplinger    : Optimizer, TS searches, QM/MM, DLPNO-CCSD(T), (RO)-DLPNO pert. Triples 
  Michael Roemelt        : Original ROCIS implementation, recursive CI coupling coefficients
  Masaaki Saitow         : Open-shell DLPNO-CCSD energy and density      
  Barbara Sandhoefer     : DKH picture change effects                    
  Yorick L. A. Schmerwitz: GMF and freeze-and-release deltaSCF, NEB S-IDPP initial path                    
  Kantharuban Sivalingam : CASSCF convergence/infrastructure, NEVPT2, NEVPT3, NEVPT4(SD), FIC-MRCI and CEPA variants
  Bernardo de Souza      : ESD, SOC TD-DFT                               
  Georgi L. Stoychev     : AutoAux, RI-MP2 NMR, DLPNO-MP2 response, X2C  
  Van Anh Tran           : RI-MP2 g-tensors                              
  Willem Van den Heuvel  : Paramagnetic NMR                              
  Zikuan Wang            : NOTCH, Electric field optimization            
  Frank Wennmohs         : Technical directorship and infrastructure     
  Hang Xu                : AUTO-CI-Response properties                   
                                                                         
[FACCTs GmbH]                                                            
  Markus Bursch, Nicolas Foglia, Miquel Garcia-Rates, Ingolf Harden, Hagen Neugebauer, Anastasios Papadopoulos, 
  Christoph Riplinger, Bernardo de Souza, Georgi L. Stoychev                                                    
                                                                 
  APM, various basis sets, CI-OPT, improved COSX, DLPNO-Multilevel,           
  DOCKER, DRACO, updates on ESD, Fragmentator, GOAT, IRC, LR-CPCM, L-BFGS, MBIS, meta-GGA TD-DFT gradient, ML-optimized integration grids, 
  MM, NACMEs, nearIR, NEB, NEB-TS, NL-DFT gradient (VV10), 2- and 3-layer-ONIOM, interface openCOSMO-RS, QMMM,   
  Crystal-QMMM, RESP, rigid body optimization, SF, symmetry and pop. for TD-DFT, various functionals, SOLVATOR                                   
                                                                         
[Other institutions]                                                     
  V. Asgeirsson          : NEB                                           
  Christoph Bannwarth    : sTDA-DFT, sTD-DFT, PBEh-3c, B97-3c, D3        
  Giovanni Bistoni       : ETS/NOCV, ADLD/ADEX, COVALED                  
  Martin Brehm           : Molecular dynamics                            
  Ronald Cardenas        : ETS/NOCV                                      
  Martina Colucci        : COVALED                                       
  Sebastian Ehlert       : rSCAN, r2SCAN, r2SCAN-3c, D4, dhf basis sets  
  Marvin Friede          : D4 for Fr, Ra, Ac-Lr                          
  Lars Goerigk           : TD-DFT with DH, B97 family of functionals     
  Stefan Grimme          : VdW corrections, initial TS optimization, DFT functionals, gCP, sTDA/sTD-DF 
  Waldemar Hujo          : DFT-NL                                        
  H. Jonsson             : NEB                                           
  Holger Kruse           : gCP                                           
  Marcel Mueller         : wB97X-3c, vDZP basis set                      
  Hagen Neugebauer       : wr2SCAN, Native XTB                           
  Gianluca Regni         : ADLD/ADEX                                     
  Tobias Risthaus        : pre 6.0 range-separated hybrid DFT and stability analysis
  Lukas Wittmann         : regularized MP2, r2SCAN double-hybrids, wr2SCAN        
                                                                         
We gratefully acknowledge several colleagues who have allowed us to      
interface, adapt or use parts of their codes:                            
  Ed Valeev, F. Pavosevic, A. Kumar             : LibInt (2-el integral package), F12 methods 
  Garnet Chan, S. Sharma, J. Yang, R. Olivares  : DMRG                   
  Ulf Ekstrom                                   : XCFun DFT Library      
  Mihaly Kallay                                 : mrcc  (arbitrary order and MRCC methods)
  Frank Weinhold                                : gennbo (NPA and NBO analysis)           
  Simon Mueller                                 : openCOSMO-RS                            
  Christopher J. Cramer and Donald G. Truhlar   : smd solvation model                     
  S Lehtola, MJT Oliveira, MAL Marques          : LibXC Library                           
  Liviu Ungur et al                             : ANISO software                          


 Your calculation uses the libint2 library for the computation of 2-el integrals
 For citations please refer to: http://libint.valeyev.net

 Your ORCA version has been built with support for libXC version: 7.0.0
 For citations please refer to: https://libxc.gitlab.io

 This ORCA versions uses:
   CBLAS   interface :  Fast vector & matrix operations
   LAPACKE interface :  Fast linear algebra routines
   SCALAPACK package :  Parallel linear algebra routines
   Shared memory     :  Shared parallel matrices
   BLAS/LAPACK       :  OpenBLAS 0.3.29  USE64BITINT DYNAMIC_ARCH NO_AFFINITY Cooperlake SINGLE_THREADED
        Core in use  :  Cooperlake
   Copyright (c) 2011-2014, The OpenBLAS Project


  ***********************************
  * Starting time: Thu Jul  2 19:15:14 2026
  * Host name:     drdoom
  * Process ID:    282339
  * Working dir.:  /home/rpaton
  ***********************************

NOTE: MaxCore=6000 MB was set to SCF,MP2,MDCI,CIPSI,MRCI,RASCI and CIS
      => If you want to overwrite this, your respective input block should be placed after the MaxCore statement
Your calculation utilizes the atom-pairwise dispersion correction
with the zero-damping scheme (D30)


Your calculation utilizes the SMD solvation module
Please cite in your paper:
Marenich, A. V.; Cramer, C. J.; Truhlar, D. G. J. Phys. Chem. B 2009, 113, 6378 

XCFun DFT library Copyright 2009-2010 Ulf Ekstrom and contributors.
See http://admol.org/xcfun for more information.
This is free software; see the source code for copying conditions.
There is ABSOLUTELY NO WARRANTY; not even for MERCHANTABILITY or FITNESS FOR A PARTICULAR PURPOSE.
For details see the documentation.
Scientific users of this library should cite U. Ekstrom, L. Visscher, R. Bast, A. J. Thorvaldsen and K. Ruud;
J.Chem.Theor.Comp. 2010, DOI: 10.1021/ct100117s
XCFun Version 0.99 

================================================================================

----- Orbital basis set information -----
Your calculation utilizes the basis: 6-31+G**
   H-He, Li-Ne : W. J. Hehre, R. Ditchfield and J.A. Pople, J. Chem. Phys. 56, 2257 (1972).
                 Note: He and Ne are unpublished basis sets taken from the Gaussian program.
                 Note: Li and B from J. D. Dill and J. A. Pople, J. Chem. Phys. 62, 2921 (1975).
   Na - Ar     : M. M. Francl, W. J. Pietro, W. J. Hehre, J. S. Binkley, M. S. Gordon, 
                 D. J. DeFrees and J. A. Pople, J. Chem. Phys. 77, 3654 (1982).
   K - Zn      : V. A. Rassolov, J. A. Pople, M. A. Ratner, and T. L. Windus, J. Chem. Phys. 109, 1223 (1998).
   Additional Pol./Diff. from the 6-311G equivalent.

----- AuxJ basis set information -----
Your calculation utilizes the AutoAux generation procedure.
  G. L. Stoychev, A. A. Auer, F. Neese, J. Chem. Theory Comput. 13, 554 (2017)

----- AuxC basis set information -----
Your calculation utilizes the AutoAux generation procedure.
  G. L. Stoychev, A. A. Auer, F. Neese, J. Chem. Theory Comput. 13, 554 (2017)

----- AuxJK basis set information -----
Your calculation utilizes the AutoAux generation procedure.
  G. L. Stoychev, A. A. Auer, F. Neese, J. Chem. Theory Comput. 13, 554 (2017)

----- AuxX basis set information -----
Your calculation utilizes the AutoAux generation procedure.
  G. L. Stoychev, A. A. Auer, F. Neese, J. Chem. Theory Comput. 13, 554 (2017)

================================================================================
                                        WARNINGS
                       Please study these warnings very carefully!
================================================================================


WARNING: The HFTyp is != UHF which is not allowed for FlipSpin
  ===> : Switching to HFTyp=UHF

WARNING: Functional chosen is sensitive to the integration grid.
         DEFGRID3 seems to be a minimum grid for robust results!

WARNING: Broken symmetry calculations need fully converged wavefunctions
  ===> : Setting SCFConvForced true
         You can overwrite this default with %scf ConvForced false 


================================================================================
                                       INPUT FILE
================================================================================
NAME = hat_ts_freq.inp
|  1> # Frequency-only re-run at the converged geometry from hat_ts.out
|  2> # (regenerates hat_ts_freq.hess for Kinisot)
|  3> ! m062x d3zero 6-31+g** autoaux Freq SMD(dichloromethane)
|  4> !pal16
|  5> %maxcore 6000 
|  6> %scf
|  7>   Flipspin 10
|  8>   FinalMs 0.0
|  9> end
| 10> 
| 11> *xyz 0 3
| 12>   C        3.234111      -1.399210      -0.232791
| 13>   N        4.049359      -0.511696       0.364092
| 14>   C        3.498601       0.665536       0.697374
| 15>   C        2.171769       1.004138       0.472165
| 16>   C        1.315913       0.066881      -0.149490
| 17>   C       -0.069348       0.348753      -0.369051
| 18>   C       -1.025730      -0.316046      -1.276716
| 19>   O       -0.505729       1.632004      -0.121410
| 20>   C       -1.882344       1.746776      -0.524962
| 21>   C       -2.389531       0.310956      -0.752628
| 22>   C       -2.753476      -0.429951       0.470422
| 23>   C       -3.735480      -1.553659       0.374560
| 24>   C       -1.834608      -0.278807       1.545303
| 25>   C        1.897573      -1.170176      -0.512838
| 26>   H        3.683501      -2.350606      -0.509450
| 27>   H        4.162037       1.385514       1.172385
| 28>   H        1.799518       1.978100       0.770236
| 29>   H       -0.987412      -1.407872      -1.236626
| 30>   H       -0.917558       0.018809      -2.314740
| 31>   H       -3.158716       0.263607      -1.526106
| 32>   H       -4.751290      -1.171950       0.205948
| 33>   H       -3.510240      -2.215196      -0.474081
| 34>   H       -3.747783      -2.153677       1.288175
| 35>   H       -1.633160       0.750580       1.875070
| 36>   H       -1.938436      -0.968311       2.383555
| 37>   H       -0.744720      -0.384158       0.966822
| 38>   H        1.313539      -1.939771      -1.008086
| 39>   H       -2.421783       2.284921       0.259552
| 40>   H       -1.928378       2.316612      -1.458086
| 41> *
| 42> 
| 43>                          ****END OF INPUT****
================================================================================

                       ****************************
                       * Single Point Calculation *
                       ****************************

---------------------------------
CARTESIAN COORDINATES (ANGSTROEM)
---------------------------------
  C      3.234111   -1.399210   -0.232791
  N      4.049359   -0.511696    0.364092
  C      3.498601    0.665536    0.697374
  C      2.171769    1.004138    0.472165
  C      1.315913    0.066881   -0.149490
  C     -0.069348    0.348753   -0.369051
  C     -1.025730   -0.316046   -1.276716
  O     -0.505729    1.632004   -0.121410
  C     -1.882344    1.746776   -0.524962
  C     -2.389531    0.310956   -0.752628
  C     -2.753476   -0.429951    0.470422
  C     -3.735480   -1.553659    0.374560
  C     -1.834608   -0.278807    1.545303
  C      1.897573   -1.170176   -0.512838
  H      3.683501   -2.350606   -0.509450
  H      4.162037    1.385514    1.172385
  H      1.799518    1.978100    0.770236
  H     -0.987412   -1.407872   -1.236626
  H     -0.917558    0.018809   -2.314740
  H     -3.158716    0.263607   -1.526106
  H     -4.751290   -1.171950    0.205948
  H     -3.510240   -2.215196   -0.474081
  H     -3.747783   -2.153677    1.288175
  H     -1.633160    0.750580    1.875070
  H     -1.938436   -0.968311    2.383555
  H     -0.744720   -0.384158    0.966822
  H      1.313539   -1.939771   -1.008086
  H     -2.421783    2.284921    0.259552
  H     -1.928378    2.316612   -1.458086

----------------------------
CARTESIAN COORDINATES (A.U.)
----------------------------
  NO LB      ZA    FRAG     MASS         X           Y           Z
   0 C     6.0000    0    12.011    6.111584   -2.644124   -0.439911
   1 N     7.0000    0    14.007    7.652180   -0.966965    0.688034
   2 C     6.0000    0    12.011    6.611398    1.257681    1.317846
   3 C     6.0000    0    12.011    4.104049    1.897546    0.892263
   4 C     6.0000    0    12.011    2.486715    0.126387   -0.282495
   5 C     6.0000    0    12.011   -0.131049    0.659048   -0.697405
   6 C     6.0000    0    12.011   -1.938349   -0.597240   -2.412644
   7 O     8.0000    0    15.999   -0.955689    3.084041   -0.229432
   8 C     6.0000    0    12.011   -3.557115    3.300928   -0.992034
   9 C     6.0000    0    12.011   -4.515559    0.587622   -1.422261
  10 C     6.0000    0    12.011   -5.203316   -0.812490    0.888969
  11 C     6.0000    0    12.011   -7.059034   -2.935990    0.707816
  12 C     6.0000    0    12.011   -3.466907   -0.526869    2.920199
  13 C     6.0000    0    12.011    3.585893   -2.211312   -0.969123
  14 H     1.0000    0     1.008    6.960808   -4.442002   -0.962721
  15 H     1.0000    0     1.008    7.865110    2.618242    2.215487
  16 H     1.0000    0     1.008    3.400596    3.738067    1.455535
  17 H     1.0000    0     1.008   -1.865938   -2.660493   -2.336884
  18 H     1.0000    0     1.008   -1.733933    0.035544   -4.374225
  19 H     1.0000    0     1.008   -5.969108    0.498145   -2.883922
  20 H     1.0000    0     1.008   -8.978637   -2.214665    0.389185
  21 H     1.0000    0     1.008   -6.633392   -4.186114   -0.895883
  22 H     1.0000    0     1.008   -7.082283   -4.069860    2.434298
  23 H     1.0000    0     1.008   -3.086225    1.418391    3.543369
  24 H     1.0000    0     1.008   -3.663113   -1.829843    4.504266
  25 H     1.0000    0     1.008   -1.407317   -0.725953    1.827029
  26 H     1.0000    0     1.008    2.482229   -3.665636   -1.905006
  27 H     1.0000    0     1.008   -4.576507    4.317875    0.490482
  28 H     1.0000    0     1.008   -3.644106    4.377762   -2.755383

--------------------------------
INTERNAL COORDINATES (ANGSTROEM)
--------------------------------
 C      0   0   0     0.000000000000     0.00000000     0.00000000
 N      1   0   0     1.344834457243     0.00000000     0.00000000
 C      2   1   0     1.341747535087   116.13172745     0.00000000
 C      3   2   1     1.387751261685   124.48742661     0.31913414
 C      4   3   2     1.413292296664   119.24633002   359.97336872
 C      5   4   3     1.430596692023   121.54901032   178.10057841
 C      6   5   4     1.476644843065   129.25556565   162.71201903
 O      6   5   4     1.377856150345   117.55451095     8.64596168
 C      8   6   5     1.439130184144   109.07642039   174.34665650
 C      9   8   6     1.539691375869   106.39103944    13.12583235
 C     10   9   8     1.475550896504   115.27319658    79.57254456
 C     11  10   9     1.495406649819   119.08787262   155.48378721
 C     11  10   9     1.422157542019   114.44037990   316.82209144
 C      1   2   3     1.384635952447   124.45467974     0.00000000
 H      1   2   3     1.087954927006   116.07656575   179.55347898
 H      3   2   1     1.088187068799   116.01953951   180.51255734
 H      4   3   2     1.084444145858   120.18051163   180.03197966
 H      7   6   5     1.093233502734   113.85275173    45.96842060
 H      7   6   5     1.096048756755   112.37550602   280.53396369
 H     10   9   8     1.091858831768   112.16327107   210.87047519
 H     12  11  10     1.098181097691   110.85962000   287.58798199
 H     12  11  10     1.099343352575   111.53839796    45.79823956
 H     12  11  10     1.093098958173   111.48691669   167.25405193
 H     13  11  10     1.099529520641   116.39477115    56.45606071
 H     13  11  10     1.090349684782   116.89316741   193.00820191
 H     13  11  10     1.238384008741   101.91927401   316.58067555
 H     14   1   2     1.085653148425   119.62203136   179.34014868
 H      9   8   6     1.093643768300   108.05401999   135.61317656
 H      9   8   6     1.094327462613   108.71572845   254.43650063

---------------------------
INTERNAL COORDINATES (A.U.)
---------------------------
 C      0   0   0     0.000000000000     0.00000000     0.00000000
 N      1   0   0     2.541368819651     0.00000000     0.00000000
 C      2   1   0     2.535535382178   116.13172745     0.00000000
 C      3   2   1     2.622469826589   124.48742661     0.31913414
 C      4   3   2     2.670735387876   119.24633002   359.97336872
 C      5   4   3     2.703435956016   121.54901032   178.10057841
 C      6   5   4     2.790454350460   129.25556565   162.71201903
 O      6   5   4     2.603770776091   117.55451095     8.64596168
 C      8   6   5     2.719561919091   109.07642039   174.34665650
 C      9   8   6     2.909595031153   106.39103944    13.12583235
 C     10   9   8     2.788387091055   115.27319658    79.57254456
 C     11  10   9     2.825909027003   119.08787262   155.48378721
 C     11  10   9     2.687488273706   114.44037990   316.82209144
 C      1   2   3     2.616582745306   124.45467974     0.00000000
 H      1   2   3     2.055936858092   116.07656575   179.55347898
 H      3   2   1     2.056375542504   116.01953951   180.51255734
 H      4   3   2     2.049302443206   120.18051163   180.03197966
 H      7   6   5     2.065911920595   113.85275173    45.96842060
 H      7   6   5     2.071231979693   112.37550602   280.53396369
 H     10   9   8     2.063314168945   112.16327107   210.87047519
 H     12  11  10     2.075261520084   110.85962000   287.58798199
 H     12  11  10     2.077457863513   111.53839796    45.79823956
 H     12  11  10     2.065657668221   111.48691669   167.25405193
 H     13  11  10     2.077809670174   116.39477115    56.45606071
 H     13  11  10     2.060462294445   116.89316741   193.00820191
 H     13  11  10     2.340206625148   101.91927401   316.58067555
 H     14   1   2     2.051587126953   119.62203136   179.34014868
 H      9   8   6     2.066687210157   108.05401999   135.61317656
 H      9   8   6     2.067979205167   108.71572845   254.43650063

---------------------
BASIS SET INFORMATION
---------------------
There are 4 groups of distinct atoms

 Group   1 Type C   : 11s5p1d contracted to 4s3p1d pattern {6311/311/1}
 Group   2 Type N   : 11s5p1d contracted to 4s3p1d pattern {6311/311/1}
 Group   3 Type O   : 11s5p1d contracted to 4s3p1d pattern {6311/311/1}
 Group   4 Type H   : 4s1p contracted to 2s1p pattern {31/1}

Atom   0C    basis set group =>   1
Atom   1N    basis set group =>   2
Atom   2C    basis set group =>   1
Atom   3C    basis set group =>   1
Atom   4C    basis set group =>   1
Atom   5C    basis set group =>   1
Atom   6C    basis set group =>   1
Atom   7O    basis set group =>   3
Atom   8C    basis set group =>   1
Atom   9C    basis set group =>   1
Atom  10C    basis set group =>   1
Atom  11C    basis set group =>   1
Atom  12C    basis set group =>   1
Atom  13C    basis set group =>   1
Atom  14H    basis set group =>   4
Atom  15H    basis set group =>   4
Atom  16H    basis set group =>   4
Atom  17H    basis set group =>   4
Atom  18H    basis set group =>   4
Atom  19H    basis set group =>   4
Atom  20H    basis set group =>   4
Atom  21H    basis set group =>   4
Atom  22H    basis set group =>   4
Atom  23H    basis set group =>   4
Atom  24H    basis set group =>   4
Atom  25H    basis set group =>   4
Atom  26H    basis set group =>   4
Atom  27H    basis set group =>   4
Atom  28H    basis set group =>   4
---------------------------------
AUXILIARY/J BASIS SET INFORMATION
---------------------------------
There are 4 groups of distinct atoms

 Group   1 Type C   : 16s13p12d2f contracted to 16s13p12d2f pattern {1111111111111111/1111111111111/111111111111/11}
 Group   2 Type N   : 16s13p12d3f contracted to 16s13p12d3f pattern {1111111111111111/1111111111111/111111111111/111}
 Group   3 Type O   : 16s13p12d3f contracted to 16s13p12d3f pattern {1111111111111111/1111111111111/111111111111/111}
 Group   4 Type H   : 10s2p1d contracted to 10s2p1d pattern {1111111111/11/1}

Atom   0C    basis set group =>   1
Atom   1N    basis set group =>   2
Atom   2C    basis set group =>   1
Atom   3C    basis set group =>   1
Atom   4C    basis set group =>   1
Atom   5C    basis set group =>   1
Atom   6C    basis set group =>   1
Atom   7O    basis set group =>   3
Atom   8C    basis set group =>   1
Atom   9C    basis set group =>   1
Atom  10C    basis set group =>   1
Atom  11C    basis set group =>   1
Atom  12C    basis set group =>   1
Atom  13C    basis set group =>   1
Atom  14H    basis set group =>   4
Atom  15H    basis set group =>   4
Atom  16H    basis set group =>   4
Atom  17H    basis set group =>   4
Atom  18H    basis set group =>   4
Atom  19H    basis set group =>   4
Atom  20H    basis set group =>   4
Atom  21H    basis set group =>   4
Atom  22H    basis set group =>   4
Atom  23H    basis set group =>   4
Atom  24H    basis set group =>   4
Atom  25H    basis set group =>   4
Atom  26H    basis set group =>   4
Atom  27H    basis set group =>   4
Atom  28H    basis set group =>   4
---------------------------------
AUXILIARY/C BASIS SET INFORMATION
---------------------------------
There are 4 groups of distinct atoms

 Group   1 Type C   : 16s13p12d2f contracted to 16s13p12d2f pattern {1111111111111111/1111111111111/111111111111/11}
 Group   2 Type N   : 16s13p12d3f contracted to 16s13p12d3f pattern {1111111111111111/1111111111111/111111111111/111}
 Group   3 Type O   : 16s13p12d3f contracted to 16s13p12d3f pattern {1111111111111111/1111111111111/111111111111/111}
 Group   4 Type H   : 10s2p1d contracted to 10s2p1d pattern {1111111111/11/1}

Atom   0C    basis set group =>   1
Atom   1N    basis set group =>   2
Atom   2C    basis set group =>   1
Atom   3C    basis set group =>   1
Atom   4C    basis set group =>   1
Atom   5C    basis set group =>   1
Atom   6C    basis set group =>   1
Atom   7O    basis set group =>   3
Atom   8C    basis set group =>   1
Atom   9C    basis set group =>   1
Atom  10C    basis set group =>   1
Atom  11C    basis set group =>   1
Atom  12C    basis set group =>   1
Atom  13C    basis set group =>   1
Atom  14H    basis set group =>   4
Atom  15H    basis set group =>   4
Atom  16H    basis set group =>   4
Atom  17H    basis set group =>   4
Atom  18H    basis set group =>   4
Atom  19H    basis set group =>   4
Atom  20H    basis set group =>   4
Atom  21H    basis set group =>   4
Atom  22H    basis set group =>   4
Atom  23H    basis set group =>   4
Atom  24H    basis set group =>   4
Atom  25H    basis set group =>   4
Atom  26H    basis set group =>   4
Atom  27H    basis set group =>   4
Atom  28H    basis set group =>   4
----------------------------------
AUXILIARY/JK BASIS SET INFORMATION
----------------------------------
There are 4 groups of distinct atoms

 Group   1 Type C   : 16s13p12d2f contracted to 16s13p12d2f pattern {1111111111111111/1111111111111/111111111111/11}
 Group   2 Type N   : 16s13p12d3f contracted to 16s13p12d3f pattern {1111111111111111/1111111111111/111111111111/111}
 Group   3 Type O   : 16s13p12d3f contracted to 16s13p12d3f pattern {1111111111111111/1111111111111/111111111111/111}
 Group   4 Type H   : 10s2p1d contracted to 10s2p1d pattern {1111111111/11/1}

Atom   0C    basis set group =>   1
Atom   1N    basis set group =>   2
Atom   2C    basis set group =>   1
Atom   3C    basis set group =>   1
Atom   4C    basis set group =>   1
Atom   5C    basis set group =>   1
Atom   6C    basis set group =>   1
Atom   7O    basis set group =>   3
Atom   8C    basis set group =>   1
Atom   9C    basis set group =>   1
Atom  10C    basis set group =>   1
Atom  11C    basis set group =>   1
Atom  12C    basis set group =>   1
Atom  13C    basis set group =>   1
Atom  14H    basis set group =>   4
Atom  15H    basis set group =>   4
Atom  16H    basis set group =>   4
Atom  17H    basis set group =>   4
Atom  18H    basis set group =>   4
Atom  19H    basis set group =>   4
Atom  20H    basis set group =>   4
Atom  21H    basis set group =>   4
Atom  22H    basis set group =>   4
Atom  23H    basis set group =>   4
Atom  24H    basis set group =>   4
Atom  25H    basis set group =>   4
Atom  26H    basis set group =>   4
Atom  27H    basis set group =>   4
Atom  28H    basis set group =>   4
---------------------------------
AUXILIARY/X BASIS SET INFORMATION
---------------------------------
There are 4 groups of distinct atoms

 Group   1 Type C   : 16s13p12d2f contracted to 16s13p12d2f pattern {1111111111111111/1111111111111/111111111111/11}
 Group   2 Type N   : 16s13p12d3f contracted to 16s13p12d3f pattern {1111111111111111/1111111111111/111111111111/111}
 Group   3 Type O   : 16s13p12d3f contracted to 16s13p12d3f pattern {1111111111111111/1111111111111/111111111111/111}
 Group   4 Type H   : 10s2p1d contracted to 10s2p1d pattern {1111111111/11/1}

Atom   0C    basis set group =>   1
Atom   1N    basis set group =>   2
Atom   2C    basis set group =>   1
Atom   3C    basis set group =>   1
Atom   4C    basis set group =>   1
Atom   5C    basis set group =>   1
Atom   6C    basis set group =>   1
Atom   7O    basis set group =>   3
Atom   8C    basis set group =>   1
Atom   9C    basis set group =>   1
Atom  10C    basis set group =>   1
Atom  11C    basis set group =>   1
Atom  12C    basis set group =>   1
Atom  13C    basis set group =>   1
Atom  14H    basis set group =>   4
Atom  15H    basis set group =>   4
Atom  16H    basis set group =>   4
Atom  17H    basis set group =>   4
Atom  18H    basis set group =>   4
Atom  19H    basis set group =>   4
Atom  20H    basis set group =>   4
Atom  21H    basis set group =>   4
Atom  22H    basis set group =>   4
Atom  23H    basis set group =>   4
Atom  24H    basis set group =>   4
Atom  25H    basis set group =>   4
Atom  26H    basis set group =>   4
Atom  27H    basis set group =>   4
Atom  28H    basis set group =>   4


           ************************************************************
           *        Program running with 16 parallel MPI-processes    *
           *              working on a common directory               *
           ************************************************************
------------------------------------------------------------------------------
                             ORCA STARTUP CALCULATIONS
                           -- RI-GTO INTEGRALS CHOSEN --
------------------------------------------------------------------------------
------------------------------------------------------------------------------
                   ___                                                        
                  /   \      - P O W E R E D   B Y -                         
                 /     \                                                     
                 |  |  |   _    _      __       _____    __    __             
                 |  |  |  | |  | |    /  \     |  _  \  |  |  /  |          
                  \  \/   | |  | |   /    \    | | | |  |  | /  /          
                 / \  \   | |__| |  /  /\  \   | |_| |  |  |/  /          
                |  |  |   |  __  | /  /__\  \  |    /   |      \           
                |  |  |   | |  | | |   __   |  |    \   |  |\   \          
                \     /   | |  | | |  |  |  |  | |\  \  |  | \   \       
                 \___/    |_|  |_| |__|  |__|  |_| \__\ |__|  \__/        
                                                                              
                      - O R C A' S   B I G   F R I E N D -                    
                                      &                                       
                       - I N T E G R A L  F E E D E R -                       
                                                                              
 v1 FN, 2020, v2 2021, v3 2022-2024                                           
------------------------------------------------------------------------------


----------------------
SHARK INTEGRAL PACKAGE
----------------------

Number of atoms                             ...     29
Number of basis functions                   ...    327
Number of shells                            ...    157
Maximum angular momentum                    ...      2
Integral batch strategy                     ... SHARK/LIBINT Hybrid
RI-J (if used) integral strategy            ... SPLIT-RIJ (Revised 2003 algorithm where possible)
Printlevel                                  ...      1
Contraction scheme used                     ... SEGMENTED contraction
Prescreening option                         ... SCHWARTZ
   Thresh                                   ... 1.000e-10
   Tcut                                     ... 1.000e-11
   Tpresel                                  ... 1.000e-11 
Coulomb Range Separation                    ... NOT USED
Exchange Range Separation                   ... NOT USED
Multipole approximations                    ... NOT USED
Finite Nucleus Model                        ... NOT USED
CABS basis                                  ... NOT available
Auxiliary Coulomb fitting basis             ... AVAILABLE
   # of basis functions in Aux-J            ...   2135
   # of shells in Aux-J                     ...    799
   Maximum angular momentum in Aux-J        ...      3
Auxiliary J/K fitting basis                 ... AVAILABLE
   # of basis functions in Aux-JK           ...   2135
   # of shells in Aux-JK                    ...    799
   Maximum angular momentum in Aux-JK       ...      3
Auxiliary Correlation fitting basis         ... AVAILABLE
   # of basis functions in Aux-C            ...   2135
   # of shells in Aux-C                     ...    799
   Maximum angular momentum in Aux-C        ...      3
Auxiliary 'external' fitting basis          ... NOT available

Checking pre-screening integrals            ... done (  0.0 sec) Dimension = 157
   => SHARK Basis and OBASIS are compatible. Storing Pre-screening
Shell pair information
Shell pair cut-off parameter TPreSel        ...   1.0e-11
Total number of shell pairs                 ...     12403
Shell pairs after pre-screening             ...     10790
Total number of primitive shell pairs       ...     49480
Primitive shell pairs kept                  ...     28944
          la=0 lb=0:   3249 shell pairs
          la=1 lb=0:   4329 shell pairs
          la=1 lb=1:   1482 shell pairs
          la=2 lb=0:    984 shell pairs
          la=2 lb=1:    667 shell pairs
          la=2 lb=2:     79 shell pairs

Checking whether 4 symmetric matrices of dimension 327 fit in memory
:Max Core in MB      =   6000.00
 MB in use           =     18.03
 MB left             =   5981.97
 MB needed           =      1.64
 Data fit in memory  = YES
Calculating RI/J V-Matrix + Cholesky decomp.... done (  0.1 sec)
Calculating RI/JK V-Matrix + Cholesky decomp.... done (  0.1 sec)
Calculating RI/C V-Matrix + Cholesky decomp.... done (  0.1 sec)
Calculating Nuclear repulsion               ... done (  0.0 sec) ENN=    882.529854520298 Eh

Diagonalization of the overlap matrix:
Smallest eigenvalue                        ... 6.934e-07
Time for diagonalization                   ...    0.006 sec
Threshold for overlap eigenvalues          ... 1.000e-07
Number of eigenvalues below threshold      ... 0

IMPORTANT:
Smallest eigenvalue of S below the DiffSThresh (1.000e-06) while
Thresh>1e-12 and/or TCut>1e-13! In order to avoid SCF convergence issues,
Thresh will be set to at least 1e-12 and TCut to at least 1e-13.
This can be turned off by adding %SCF DiffSThresh -1 END to the input.

Time for construction of square roots      ...    0.004 sec
Total time needed                          ...    0.011 sec

-------------------
DFT GRID GENERATION
-------------------

General Integration Accuracy     IntAcc      ... 4.388
Radial Grid Type                 RadialGrid  ... OptM3 with GC (2021)
Angular Grid (max. ang.)         AngularGrid ... 4 (Lebedev-302)
Angular grid pruning method      GridPruning ... 4 (adaptive)
Weight generation scheme         WeightScheme... mBecke (2022)
Basis function cutoff            BFCut       ... 1.0000e-10
Integration weight cutoff        WCut        ... 1.0000e-14
Partially contracted basis set               ... off
Rotationally invariant grid construction     ... off
Angular grids for H and He will be reduced by one unit
Diffuse basis detected: some atoms will have their outermost
                        angular grid increased by 1.

Total number of grid points                  ...   134597
Total number of batches                      ...     2119
Average number of points per batch           ...       63
Average number of grid points per atom       ...     4641

--------------------
COSX GRID GENERATION
--------------------

GRIDX 1
-------
General Integration Accuracy     IntAcc      ... 3.816
Radial Grid Type                 RadialGrid  ... OptM3 with GC (2021)
Angular Grid (max. ang.)         AngularGrid ... 1 (Lebedev-50)
Angular grid pruning method      GridPruning ... 4 (adaptive)
Weight generation scheme         WeightScheme... mBecke (2022)
Basis function cutoff            BFCut       ... 1.0000e-10
Integration weight cutoff        WCut        ... 1.0000e-14
Partially contracted basis set               ... on
Rotationally invariant grid construction     ... off
Angular grids for H and He will be reduced by one unit
Diffuse basis detected: some atoms will have their outermost
                        angular grid increased by 1.

Total number of grid points                  ...    17145
Total number of batches                      ...      151
Average number of points per batch           ...      113
Average number of grid points per atom       ...      591
UseSFitting                                  ... on

GRIDX 2
-------
General Integration Accuracy     IntAcc      ... 4.020
Radial Grid Type                 RadialGrid  ... OptM3 with GC (2021)
Angular Grid (max. ang.)         AngularGrid ... 2 (Lebedev-110)
Angular grid pruning method      GridPruning ... 4 (adaptive)
Weight generation scheme         WeightScheme... mBecke (2022)
Basis function cutoff            BFCut       ... 1.0000e-10
Integration weight cutoff        WCut        ... 1.0000e-14
Partially contracted basis set               ... on
Rotationally invariant grid construction     ... off
Angular grids for H and He will be reduced by one unit
Diffuse basis detected: some atoms will have their outermost
                        angular grid increased by 1.

Total number of grid points                  ...    39369
Total number of batches                      ...      321
Average number of points per batch           ...      122
Average number of grid points per atom       ...     1358
UseSFitting                                  ... on

GRIDX 3
-------
General Integration Accuracy     IntAcc      ... 4.338
Radial Grid Type                 RadialGrid  ... OptM3 with GC (2021)
Angular Grid (max. ang.)         AngularGrid ... 3 (Lebedev-194)
Angular grid pruning method      GridPruning ... 4 (adaptive)
Weight generation scheme         WeightScheme... mBecke (2022)
Basis function cutoff            BFCut       ... 1.0000e-10
Integration weight cutoff        WCut        ... 1.0000e-14
Partially contracted basis set               ... on
Rotationally invariant grid construction     ... off
Angular grids for H and He will be reduced by one unit
Diffuse basis detected: some atoms will have their outermost
                        angular grid increased by 1.

Total number of grid points                  ...    84884
Total number of batches                      ...      680
Average number of points per batch           ...      124
Average number of grid points per atom       ...     2927
UseSFitting                                  ... on
Grids setup in   0.7 sec
Initializing property integral containers    ... done (  0.0 sec)

SHARK setup successfully completed in   1.3 seconds

Maximum memory used throughout the entire STARTUP-calculation: 41.6 MB


           ************************************************************
           *        Program running with 16 parallel MPI-processes    *
           *              working on a common directory               *
           ************************************************************
-------------------------------------------------------------------------------
                                 ORCA GUESS
                   Start orbitals & Density for SCF / CASSCF
-------------------------------------------------------------------------------

------------
SCF SETTINGS
------------
Hamiltonian:
 Density Functional     Method          .... DFT(GTOs)
 Exchange Functional    Exchange        .... M062X
 Correlation Functional Correlation     .... M062X
 Gradients option       PostSCFGGA      .... off
 Hybrid DFT is turned on
   Fraction HF Exchange ScalHFX         ....  0.540000
   Scaling of DF-GGA-X  ScalDFX         ....  0.460000
   Scaling of DF-GGA-C  ScalDFC         ....  1.000000
   Scaling of DF-LDA-C  ScalLDAC        ....  1.000000
   Perturbative correction              ....  0.000000
 RI-approximation to the Coulomb term is turned on
   Number of AuxJ basis functions       .... 2135
   RIJ-COSX (HFX calculated with COS-X)).... on


General Settings:
 Integral files         IntName         .... hat_ts_freq
 Hartree-Fock type      HFTyp           .... UHF
 Total Charge           Charge          ....    0
 Multiplicity           Mult            ....    3
 Number of Electrons    NEL             ....  102
 Basis Dimension        Dim             ....  327
 Nuclear Repulsion      ENuc            ....    882.5298545203 Eh

Convergence Acceleration:
 AO-DIIS                CNVDIIS         .... on
   Start iteration      DIISMaxIt       ....    12
   Startup error        DIISStart       ....  0.200000
   # of expansion vecs  DIISMaxEq       ....     5
   Bias factor          DIISBfac        ....   1.050
   Max. coefficient     DIISMaxC        ....  10.000
 MO-DIIS                CNVKDIIS        .... off
 Trust-Rad. Augm. Hess. CNVTRAH         .... auto
   Auto Start mean grad. ratio tolernc. ....  1.125000
   Auto Start start iteration           ....    50
   Auto Start num. interpolation iter.  ....    10
   Max. Number of Micro iterations      ....    24
   Max. Number of Macro iterations      .... Maxiter - #DIIS iter
   Number of Davidson start vectors     ....     2
   Converg. threshold    (grad. norm)   ....   5.000e-05
   Grad. Scal. Fac. for Micro threshold ....   0.100
   Minimum threshold for Micro iter.    ....   1.000e-02
   NR start threshold (gradient norm)   ....   1.000e-04
   Initial trust radius                 ....   0.400
   Minimum AH scaling param. (alpha)    ....   1.000
   Maximum AH scaling param. (alpha)    .... 1000.000
   Quad. conv. algorithm                .... NR
   White noise on init. David. guess    .... on
   Maximum white noise                  ....   0.010
   Pseudo random numbers                .... off
   Inactive MOs                         .... canonical
   Orbital update algorithm             .... Taylor
   Preconditioner                       .... Diag
   Full preconditioner red. dimension   ....   250
 SOSCF                 CNVSOSCF           .... on
   Start iteration     SOSCFMaxIt         ....   150
   Startup grad/error  SOSCFStart         ....  0.003300
   Hessian update      SOSCFHessUp        .... L-BFGS
   Autom. constraints  SOSCFAutoConstrain .... off
 Level Shifting         CNVShift        .... on
   Level shift para.    LevelShift      ....    0.2500
   Turn off err/grad.   ShiftErr        ....    0.0010
 Zerner damping         CNVZerner       .... off
 Static damping         CNVDamp         .... on
   Fraction old density DampFac         ....    0.7000
   Max. Damping (<1)    DampMax         ....    0.9800
   Min. Damping (>=0)   DampMin         ....    0.0000
   Turn off err/grad.   DampErr         ....    0.1000

SCF Procedure:
 Maximum # iterations   MaxIter         ....   125
 SCF integral mode      SCFMode         .... Direct
   Integral package                     .... SHARK and LIBINT hybrid scheme
 Reset frequency        DirectResetFreq ....    20
 Integral Threshold     Thresh          ....  1.000e-12 Eh
 Primitive CutOff       TCut            ....  1.000e-13 Eh

Convergence Tolerance:
 Convergence Check Mode ConvCheckMode   .... Total+1el-Energy
 Convergence forced     ConvForced      .... 1
 Energy Change          TolE            ....  1.000e-06 Eh
 1-El. energy change                    ....  1.000e-03 Eh
 Orbital Gradient       TolG            ....  5.000e-05
 Orbital Rotation angle TolX            ....  5.000e-05
 DIIS Error             TolErr          ....  1.000e-06


The Flip-Spin feature is operative for generating broken symmetry solutions
List of atoms to flip:
 C 10
We will now do a high-spin calculation with                 Ms=  1.0
and then try to converge to the broken symmetry state with Ms=  0.0

------------------------------
INITIAL GUESS: MODEL POTENTIAL
------------------------------
Loading Hartree-Fock densities                     ... done
Calculating cut-offs                               ... done
Initializing the effective Hamiltonian             ... done
Setting up the integral package (SHARK)            ... done
Starting the Coulomb interaction                   ... done (   0.0 sec)
Making the grid                                    ... done (   0.1 sec)
Mapping shells                                     ... done
Starting the XC term evaluation                    ... done (   0.0 sec)
  promolecular density results
     # of electrons  =    101.987062214
     EX              =    -80.508130672
     EC              =     -3.410652337
     EX+EC           =    -83.918783009
Transforming the Hamiltonian                       ... done (   0.0 sec)
Diagonalizing the Hamiltonian                      ... done (   0.0 sec)
Back transforming the eigenvectors                 ... done (   0.0 sec)
Now organizing SCF variables                       ... done
                      ------------------
                      INITIAL GUESS DONE (   0.2 sec)
                      ------------------
             **** ENERGY FILE WAS UPDATED (hat_ts_freq.en.tmp) ****
Finished Guess after   0.5 sec
Maximum memory used throughout the entire GUESS-calculation: 21.6 MB


           ************************************************************
           *        Program running with 16 parallel MPI-processes    *
           *              working on a common directory               *
           ************************************************************

-------------------------------------------------------------------------------------------
                                      ORCA LEAN-SCF
                              memory conserving SCF solver
-------------------------------------------------------------------------------------------

--------------------
CPCM SOLVATION MODEL
--------------------
CPCM parameters:
  Epsilon                                         ...       8.9300
  Refrac                                          ...       1.4242
  Rsolv                                           ...       1.3000
  Surface type                                    ... GAUSSIAN VDW
  Discretization scheme                           ... Constant charge density
    Threshold for H atoms                         ...       5.0000 (charges/Ang^2)
    Threshold for non-H atoms                     ...       5.0000 (charges/Ang^2)
  Epsilon function type                           ...         CPCM
Solvent:                                          ... DICHLOROMETHANE
SMD-CDS solvent descriptors:
  Soln                                            ...       1.4242
  Soln25                                          ...       1.4212
  Sola                                            ...       0.1000
  Solb                                            ...       0.0500
  Solg                                            ...      39.1500
  Solc                                            ...       0.0000
  Solh                                            ...       0.6670
Radii:
  Scheme                                          ... Element-dependent radii
  Radius for C  used is    3.4960 Bohr (=   1.8500 Ang.)
  Radius for N  used is    3.5716 Bohr (=   1.8900 Ang.)
  Radius for O  used is    3.9949 Bohr (=   2.1140 Ang.)
  Radius for H  used is    2.2677 Bohr (=   1.2000 Ang.)
Calculating surface                               ...        done! (  0.0s)
Cavity surface points                             ...         2115
Cavity Volume                                     ...    1435.3036
Cavity Surface-area                               ...     817.1728
Calculating surface distance matrix               ...        done! (  0.0s)
Performing Cholesky decomposition & store         ...        done! (  0.1s)
Overall time for CPCM initialization              ...                 0.1s

                     ******************************************
                               F L I P    S P I N
                           -----------------------------
                            High-Spin SCF calculation
                                S(HS) =   1.0
                      ******************************************
 ----------------------------------------D-I-I-S--------------------------------------------
Iteration    Energy (Eh)           Delta-E    RMSDP     MaxDP     DIISErr   Damp  Time(sec)
-------------------------------------------------------------------------------------------
               ***  Starting incremental Fock matrix formation  ***
    1    -595.5959479190307775     0.00e+00  3.09e-02  6.67e-01  9.07e-02  0.700   1.6
    2    -595.7247069831485078    -1.29e-01  4.91e-02  1.62e+00  4.94e-02  0.700   1.1
                               ***Turning on AO-DIIS***
    3    -595.7903101839017381    -6.56e-02  3.29e-02  1.26e+00  2.35e-02  0.700   1.1
    4    -595.8292223434948482    -3.89e-02  6.49e-02  2.41e+00  1.55e-02  0.000   1.0
                              *** Initializing SOSCF ***
---------------------------------------S-O-S-C-F--------------------------------------
Iteration    Energy (Eh)           Delta-E    RMSDP     MaxDP     MaxGrad    Time(sec)
--------------------------------------------------------------------------------------
    5    -595.9136750171071526    -8.45e-02  1.67e-02  6.16e-01  3.27e-03     1.1
               *** Restarting incremental Fock matrix formation ***
    6    -595.9147080846109930    -1.03e-03  1.74e-02  6.51e-01  4.93e-03     1.6
    7    -595.9153787387874672    -6.71e-04  2.98e-02  1.19e+00  2.93e-03     1.4
    8    -595.9155986031166776    -2.20e-04  6.66e-03  2.17e-01  1.78e-03     1.4
    9    -595.9157347692503208    -1.36e-04  1.18e-03  3.35e-02  4.35e-04     1.4
   10    -595.9157398809315964    -5.11e-06  6.92e-04  2.81e-02  2.18e-04     1.3
   11    -595.9157424033530788    -2.52e-06  3.15e-04  1.36e-02  6.90e-05     1.3
   12    -595.9157426324584321    -2.29e-07  1.06e-04  5.20e-03  2.36e-05     1.2
                 **** Energy Check signals convergence ****

               *****************************************************
               *                     SUCCESS                       *
               *           SCF CONVERGED AFTER  12 CYCLES          *
               *****************************************************

Recomputing exchange energy using gridx3       ... done (    1.637 sec)
Old exchange energy                            :    -44.496523915 Eh
New exchange energy                            :    -44.496596176 Eh
Exchange energy change after final integration :     -0.000072262 Eh
Total energy after final integration           :   -595.915814957 Eh

SMD CDS free energy correction energy :                -3.92402     Kcal/mol
Total Energy after SMD CDS correction =              -595.922068287 Eh
             **** ENERGY FILE WAS UPDATED (hat_ts_freq.en.tmp) ****

----------------
TOTAL SCF ENERGY
----------------

Total Energy       :       -595.92206828682163 Eh          -16215.86388 eV

Components:
Nuclear Repulsion  :        882.52985452029816 Eh           24014.85823 eV
Electronic Energy  :      -1478.42694937544184 Eh          -40230.04255 eV
One Electron Energy:      -2556.44121223544380 Eh          -69564.30197 eV
Two Electron Energy:       1078.01426286000196 Eh           29334.25942 eV
CPCM Dielectric    :         -0.01864783995715 Eh              -0.50743 eV
SMD CDS (Gcds)     :         -0.00625333016999 Eh              -0.17016 eV

Virial components:
Potential Energy   :      -1188.06800964011791 Eh          -32328.97412 eV
Kinetic Energy     :        592.14594135329628 Eh           16113.11024 eV
Virial Ratio       :          2.00637702071367

DFT components:
N(Alpha)           :       52.000015065412 electrons
N(Beta)            :       49.999989327809 electrons
N(Total)           :      102.000004393221 electrons
E(XC)              :      -41.500657084493 Eh       

CPCM Solvation Model Properties:
Surface-charge          :         -0.05695132546477
Corrected charge        :          0.00000000000000
Outlying charge corr.   :          0.00018695442826 Eh               0.00509 eV
Free-energy (cav+disp)  :         -0.00625333016999 Eh              -0.17016 eV

---------------
SCF CONVERGENCE
---------------

  Last Energy change         ...    2.2911e-07  Tolerance :   1.0000e-06
  Last MAX-Density change    ...    5.2024e-03  Tolerance :   1.0000e-05
  Last RMS-Density change    ...    1.0559e-04  Tolerance :   1.0000e-06
  Last DIIS Error            ...    3.2675e-03  Tolerance :   1.0000e-06
  Last Orbital Gradient      ...    2.3597e-05  Tolerance :   5.0000e-05
  Last Orbital Rotation      ...    1.2209e-04  Tolerance :   5.0000e-05


----------------------
UHF SPIN CONTAMINATION
----------------------

Warning: in a DFT calculation there is little theoretical justification to 
         calculate <S**2> as in Hartree-Fock theory. We will do it anyways
         but you should keep in mind that the values have only limited relevance

Expectation value of <S**2>     :     2.018323
Ideal value S*(S+1) for S=1.0   :     2.000000
Deviation                       :     0.018323


                    ********************************
                    * MULLIKEN POPULATION ANALYSIS *
                    ********************************

--------------------------------------------
MULLIKEN ATOMIC CHARGES AND SPIN POPULATIONS
--------------------------------------------
   0 C :   -0.336915   -0.058586
   1 N :   -0.275825    0.174001
   2 C :   -0.369079   -0.074004
   3 C :    0.445682    0.237226
   4 C :    0.410210   -0.017144
   5 C :   -1.155557    0.401276
   6 C :   -0.058390    0.040649
   7 O :   -0.325307    0.084683
   8 C :    0.101842    0.004714
   9 C :   -0.245190   -0.037996
  10 C :    0.289174    0.939463
  11 C :   -0.700864   -0.077869
  12 C :   -0.557166   -0.009997
  13 C :    0.013484    0.176471
  14 H :    0.176681    0.001832
  15 H :    0.176145    0.002041
  16 H :    0.197764   -0.007934
  17 H :    0.207219    0.003745
  18 H :    0.217507    0.033585
  19 H :    0.188771    0.005020
  20 H :    0.182106    0.040454
  21 H :    0.170361    0.046230
  22 H :    0.170852    0.001871
  23 H :    0.191915    0.044995
  24 H :    0.175424   -0.000611
  25 H :    0.143909    0.048618
  26 H :    0.190023   -0.007086
  27 H :    0.189828    0.001705
  28 H :    0.185392    0.002648
Sum of atomic charges         :    0.0000000
Sum of atomic spin populations:    2.0000000

-----------------------------------------------------
MULLIKEN REDUCED ORBITAL CHARGES AND SPIN POPULATIONS
-----------------------------------------------------
CHARGE
  0 C s       :     3.472288  s :     3.472288
      pz      :     0.908039  p :     2.812605
      px      :     0.965038
      py      :     0.939528
      dz2     :     0.005912  d :     0.052022
      dxz     :     0.009661
      dyz     :     0.006320
      dx2y2   :     0.016226
      dxy     :     0.013903

  1 N s       :     3.667747  s :     3.667747
      pz      :     1.159605  p :     3.570439
      px      :     1.402068
      py      :     1.008765
      dz2     :     0.005258  d :     0.037639
      dxz     :     0.007554
      dyz     :     0.005422
      dx2y2   :     0.006904
      dxy     :     0.012501

  2 C s       :     3.491839  s :     3.491839
      pz      :     0.944882  p :     2.825003
      px      :     1.037789
      py      :     0.842332
      dz2     :     0.003889  d :     0.052237
      dxz     :     0.007751
      dyz     :     0.009091
      dx2y2   :     0.014218
      dxy     :     0.017287

  3 C s       :     2.528680  s :     2.528680
      pz      :     1.025689  p :     2.994677
      px      :     0.917166
      py      :     1.051822
      dz2     :     0.003497  d :     0.030961
      dxz     :     0.005762
      dyz     :     0.003760
      dx2y2   :     0.008915
      dxy     :     0.009027

  4 C s       :     2.178753  s :     2.178753
      pz      :     1.011748  p :     3.370993
      px      :     1.196494
      py      :     1.162752
      dz2     :     0.004930  d :     0.040044
      dxz     :     0.007939
      dyz     :     0.005800
      dx2y2   :     0.011531
      dxy     :     0.009844

  5 C s       :     3.667142  s :     3.667142
      pz      :     0.964728  p :     3.421749
      px      :     1.478708
      py      :     0.978313
      dz2     :     0.008507  d :     0.066666
      dxz     :     0.009577
      dyz     :     0.013181
      dx2y2   :     0.019841
      dxy     :     0.015559

  6 C s       :     3.057597  s :     3.057597
      pz      :     0.980808  p :     2.966116
      px      :     0.894823
      py      :     1.090485
      dz2     :     0.009682  d :     0.034676
      dxz     :     0.006940
      dyz     :     0.004667
      dx2y2   :     0.007606
      dxy     :     0.005780

  7 O s       :     3.797174  s :     3.797174
      pz      :     1.730549  p :     4.497958
      px      :     1.354808
      py      :     1.412601
      dz2     :     0.003747  d :     0.030175
      dxz     :     0.004585
      dyz     :     0.005683
      dx2y2   :     0.010816
      dxy     :     0.005345

  8 C s       :     3.090659  s :     3.090659
      pz      :     1.100722  p :     2.751110
      px      :     0.649871
      py      :     1.000516
      dz2     :     0.008776  d :     0.056388
      dxz     :     0.012356
      dyz     :     0.010398
      dx2y2   :     0.015134
      dxy     :     0.009724

  9 C s       :     3.265278  s :     3.265278
      pz      :     1.046884  p :     2.939247
      px      :     0.986043
      py      :     0.906319
      dz2     :     0.007250  d :     0.040666
      dxz     :     0.010667
      dyz     :     0.007307
      dx2y2   :     0.009111
      dxy     :     0.006331

 10 C s       :     2.858036  s :     2.858036
      pz      :     0.955906  p :     2.814806
      px      :     0.865400
      py      :     0.993500
      dz2     :     0.008575  d :     0.037984
      dxz     :     0.009161
      dyz     :     0.007934
      dx2y2   :     0.006364
      dxy     :     0.005951

 11 C s       :     3.515342  s :     3.515342
      pz      :     1.102485  p :     3.154411
      px      :     1.037874
      py      :     1.014052
      dz2     :     0.005508  d :     0.031111
      dxz     :     0.001798
      dyz     :     0.009575
      dx2y2   :     0.007920
      dxy     :     0.006309

 12 C s       :     3.390826  s :     3.390826
      pz      :     1.033954  p :     3.134043
      px      :     0.999053
      py      :     1.101037
      dz2     :     0.005852  d :     0.032297
      dxz     :     0.007425
      dyz     :     0.007888
      dx2y2   :     0.008798
      dxy     :     0.002335

 13 C s       :     2.892060  s :     2.892060
      pz      :     1.025274  p :     3.063306
      px      :     0.921239
      py      :     1.116793
      dz2     :     0.002822  d :     0.031150
      dxz     :     0.005520
      dyz     :     0.004804
      dx2y2   :     0.008640
      dxy     :     0.009364

 14 H s       :     0.812595  s :     0.812595
      pz      :     0.002161  p :     0.010724
      px      :     0.002290
      py      :     0.006273

 15 H s       :     0.813162  s :     0.813162
      pz      :     0.003040  p :     0.010693
      px      :     0.003670
      py      :     0.003983

 16 H s       :     0.790500  s :     0.790500
      pz      :     0.002616  p :     0.011736
      px      :     0.002379
      py      :     0.006741

 17 H s       :     0.782322  s :     0.782322
      pz      :     0.001560  p :     0.010459
      px      :     0.001725
      py      :     0.007174

 18 H s       :     0.772039  s :     0.772039
      pz      :     0.006340  p :     0.010454
      px      :     0.001954
      py      :     0.002160

 19 H s       :     0.800942  s :     0.800942
      pz      :     0.004468  p :     0.010287
      px      :     0.004219
      py      :     0.001600

 20 H s       :     0.807569  s :     0.807569
      pz      :     0.002013  p :     0.010326
      px      :     0.005874
      py      :     0.002438

 21 H s       :     0.819286  s :     0.819286
      pz      :     0.004666  p :     0.010353
      px      :     0.002104
      py      :     0.003582

 22 H s       :     0.818886  s :     0.818886
      pz      :     0.005245  p :     0.010262
      px      :     0.001760
      py      :     0.003256

 23 H s       :     0.797172  s :     0.797172
      pz      :     0.002007  p :     0.010913
      px      :     0.002608
      py      :     0.006298

 24 H s       :     0.813920  s :     0.813920
      pz      :     0.004802  p :     0.010655
      px      :     0.001927
      py      :     0.003926

 25 H s       :     0.842581  s :     0.842581
      pz      :     0.004610  p :     0.013509
      px      :     0.006695
      py      :     0.002204

 26 H s       :     0.798337  s :     0.798337
      pz      :     0.003509  p :     0.011640
      px      :     0.003366
      py      :     0.004765

 27 H s       :     0.800207  s :     0.800207
      pz      :     0.004526  p :     0.009965
      px      :     0.002516
      py      :     0.002922

 28 H s       :     0.804765  s :     0.804765
      pz      :     0.005770  p :     0.009842
      px      :     0.000964
      py      :     0.003108


SPIN
  0 C s       :    -0.008118  s :    -0.008118
      pz      :    -0.033741  p :    -0.053340
      px      :    -0.008796
      py      :    -0.010803
      dz2     :     0.000944  d :     0.002872
      dxz     :     0.001386
      dyz     :     0.000054
      dx2y2   :     0.000012
      dxy     :     0.000476

  1 N s       :     0.014577  s :     0.014577
      pz      :     0.122614  p :     0.160155
      px      :     0.010478
      py      :     0.027063
      dz2     :    -0.000195  d :    -0.000730
      dxz     :    -0.000256
      dyz     :    -0.000205
      dx2y2   :    -0.000069
      dxy     :    -0.000006

  2 C s       :    -0.015447  s :    -0.015447
      pz      :    -0.038687  p :    -0.061458
      px      :    -0.013031
      py      :    -0.009741
      dz2     :     0.000025  d :     0.002901
      dxz     :     0.001545
      dyz     :     0.000870
      dx2y2   :     0.000500
      dxy     :    -0.000038

  3 C s       :     0.060268  s :     0.060268
      pz      :     0.118057  p :     0.177127
      px      :     0.022254
      py      :     0.036816
      dz2     :    -0.000013  d :    -0.000168
      dxz     :     0.000061
      dyz     :    -0.000045
      dx2y2   :    -0.000076
      dxy     :    -0.000095

  4 C s       :     0.079341  s :     0.079341
      pz      :    -0.104667  p :    -0.102422
      px      :     0.011369
      py      :    -0.009123
      dz2     :     0.000473  d :     0.005936
      dxz     :     0.004058
      dyz     :     0.000329
      dx2y2   :     0.000415
      dxy     :     0.000660

  5 C s       :    -0.062238  s :    -0.062238
      pz      :     0.311835  p :     0.462278
      px      :     0.094181
      py      :     0.056262
      dz2     :    -0.000070  d :     0.001236
      dxz     :     0.000266
      dyz     :     0.000794
      dx2y2   :     0.000143
      dxy     :     0.000103

  6 C s       :     0.003451  s :     0.003451
      pz      :    -0.001689  p :     0.033673
      px      :     0.031795
      py      :     0.003566
      dz2     :     0.003186  d :     0.003525
      dxz     :    -0.000019
      dyz     :     0.000039
      dx2y2   :    -0.000023
      dxy     :     0.000344

  7 O s       :     0.002613  s :     0.002613
      pz      :     0.076413  p :     0.081583
      px      :     0.006471
      py      :    -0.001302
      dz2     :    -0.000163  d :     0.000487
      dxz     :     0.000360
      dyz     :     0.000143
      dx2y2   :     0.000220
      dxy     :    -0.000073

  8 C s       :    -0.013996  s :    -0.013996
      pz      :     0.001045  p :     0.018094
      px      :     0.007799
      py      :     0.009250
      dz2     :     0.000265  d :     0.000616
      dxz     :     0.000416
      dyz     :    -0.000141
      dx2y2   :     0.000094
      dxy     :    -0.000017

  9 C s       :     0.000176  s :     0.000176
      pz      :    -0.023506  p :    -0.043817
      px      :    -0.007177
      py      :    -0.013133
      dz2     :     0.000165  d :     0.005645
      dxz     :     0.002466
      dyz     :     0.000874
      dx2y2   :     0.001971
      dxy     :     0.000170

 10 C s       :     0.110991  s :     0.110991
      pz      :     0.122066  p :     0.830297
      px      :     0.355335
      py      :     0.352897
      dz2     :    -0.000168  d :    -0.001825
      dxz     :    -0.000610
      dyz     :    -0.000302
      dx2y2   :     0.000114
      dxy     :    -0.000859

 11 C s       :    -0.014733  s :    -0.014733
      pz      :    -0.008713  p :    -0.069494
      px      :    -0.031963
      py      :    -0.028817
      dz2     :     0.000279  d :     0.006357
      dxz     :     0.000043
      dyz     :     0.001139
      dx2y2   :     0.005117
      dxy     :    -0.000220

 12 C s       :    -0.038981  s :    -0.038981
      pz      :    -0.002710  p :     0.021736
      px      :     0.027485
      py      :    -0.003038
      dz2     :     0.001173  d :     0.007248
      dxz     :    -0.000193
      dyz     :     0.001885
      dx2y2   :     0.003203
      dxy     :     0.001179

 13 C s       :     0.012568  s :     0.012568
      pz      :     0.123213  p :     0.164022
      px      :     0.008686
      py      :     0.032123
      dz2     :     0.000003  d :    -0.000118
      dxz     :     0.000031
      dyz     :    -0.000010
      dx2y2   :    -0.000104
      dxy     :    -0.000038

 14 H s       :     0.001933  s :     0.001933
      pz      :    -0.000094  p :    -0.000101
      px      :    -0.000017
      py      :     0.000010

 15 H s       :     0.002145  s :     0.002145
      pz      :    -0.000088  p :    -0.000105
      px      :    -0.000009
      py      :    -0.000008

 16 H s       :    -0.008347  s :    -0.008347
      pz      :     0.000388  p :     0.000413
      px      :     0.000020
      py      :     0.000005

 17 H s       :     0.003740  s :     0.003740
      pz      :    -0.000057  p :     0.000005
      px      :     0.000046
      py      :     0.000016

 18 H s       :     0.033437  s :     0.033437
      pz      :    -0.000043  p :     0.000148
      px      :     0.000151
      py      :     0.000040

 19 H s       :     0.005086  s :     0.005086
      pz      :    -0.000038  p :    -0.000066
      px      :    -0.000010
      py      :    -0.000018

 20 H s       :     0.040435  s :     0.040435
      pz      :    -0.000011  p :     0.000019
      px      :    -0.000008
      py      :     0.000038

 21 H s       :     0.046238  s :     0.046238
      pz      :     0.000055  p :    -0.000007
      px      :    -0.000050
      py      :    -0.000012

 22 H s       :     0.001922  s :     0.001922
      pz      :     0.000010  p :    -0.000051
      px      :    -0.000049
      py      :    -0.000013

 23 H s       :     0.044762  s :     0.044762
      pz      :     0.000078  p :     0.000233
      px      :     0.000101
      py      :     0.000054

 24 H s       :    -0.000846  s :    -0.000846
      pz      :    -0.000015  p :     0.000235
      px      :     0.000181
      py      :     0.000069

 25 H s       :     0.045245  s :     0.045245
      pz      :     0.001876  p :     0.003373
      px      :     0.001302
      py      :     0.000194

 26 H s       :    -0.007467  s :    -0.007467
      pz      :     0.000314  p :     0.000380
      px      :     0.000021
      py      :     0.000046

 27 H s       :     0.001705  s :     0.001705
      pz      :    -0.000001  p :    -0.000001
      px      :    -0.000006
      py      :     0.000006

 28 H s       :     0.002603  s :     0.002603
      pz      :     0.000001  p :     0.000045
      px      :     0.000009
      py      :     0.000035



                     *******************************
                     * LOEWDIN POPULATION ANALYSIS *
                     *******************************

-------------------------------------------
LOEWDIN ATOMIC CHARGES AND SPIN POPULATIONS
-------------------------------------------
   0 C :   -0.058771   -0.034092
   1 N :   -0.320110    0.154927
   2 C :   -0.056991   -0.036800
   3 C :   -0.147185    0.134486
   4 C :   -0.112810   -0.007384
   5 C :   -0.009483    0.471057
   6 C :   -0.216889    0.045804
   7 O :   -0.395987    0.101270
   8 C :   -0.022035    0.015368
   9 C :   -0.210260   -0.006513
  10 C :   -0.195535    0.786770
  11 C :   -0.325533   -0.015023
  12 C :   -0.315861    0.070081
  13 C :   -0.157547    0.126604
  14 H :    0.165131    0.000195
  15 H :    0.165060    0.000266
  16 H :    0.183806   -0.001679
  17 H :    0.183498    0.003453
  18 H :    0.180545    0.025465
  19 H :    0.175017    0.003291
  20 H :    0.148039    0.035604
  21 H :    0.151693    0.034187
  22 H :    0.146750    0.000300
  23 H :    0.166342    0.037274
  24 H :    0.152750    0.000993
  25 H :    0.208453    0.053535
  26 H :    0.179393   -0.001709
  27 H :    0.172767   -0.000161
  28 H :    0.165753    0.002430

----------------------------------------------------
LOEWDIN REDUCED ORBITAL CHARGES AND SPIN POPULATIONS
----------------------------------------------------
CHARGE
  0 C s       :     2.866693  s :     2.866693
      pz      :     0.946678  p :     3.066675
      px      :     1.073064
      py      :     1.046932
      dz2     :     0.012124  d :     0.125403
      dxz     :     0.023779
      dyz     :     0.013218
      dx2y2   :     0.041050
      dxy     :     0.035231

  1 N s       :     3.247936  s :     3.247936
      pz      :     1.211833  p :     3.986815
      px      :     1.547436
      py      :     1.227546
      dz2     :     0.010658  d :     0.085359
      dxz     :     0.011869
      dyz     :     0.015885
      dx2y2   :     0.018687
      dxy     :     0.028259

  2 C s       :     2.866951  s :     2.866951
      pz      :     0.948396  p :     3.064170
      px      :     1.081911
      py      :     1.033864
      dz2     :     0.009346  d :     0.125869
      dxz     :     0.016666
      dyz     :     0.018462
      dx2y2   :     0.035952
      dxy     :     0.045444

  3 C s       :     2.873389  s :     2.873389
      pz      :     1.022468  p :     3.194494
      px      :     1.088158
      py      :     1.083868
      dz2     :     0.007717  d :     0.079302
      dxz     :     0.014026
      dyz     :     0.008027
      dx2y2   :     0.024421
      dxy     :     0.025112

  4 C s       :     2.834906  s :     2.834906
      pz      :     1.012102  p :     3.170783
      px      :     1.063523
      py      :     1.095158
      dz2     :     0.011148  d :     0.107122
      dxz     :     0.018877
      dyz     :     0.014417
      dx2y2   :     0.033598
      dxy     :     0.029082

  5 C s       :     2.849723  s :     2.849723
      pz      :     0.998866  p :     3.000668
      px      :     1.082425
      py      :     0.919377
      dz2     :     0.019736  d :     0.159091
      dxz     :     0.021699
      dyz     :     0.029264
      dx2y2   :     0.049912
      dxy     :     0.038480

  6 C s       :     2.879555  s :     2.879555
      pz      :     1.100694  p :     3.257698
      px      :     1.046826
      py      :     1.110178
      dz2     :     0.021590  d :     0.079636
      dxz     :     0.017448
      dyz     :     0.009554
      dx2y2   :     0.017058
      dxy     :     0.013986

  7 O s       :     3.486351  s :     3.486351
      pz      :     1.792286  p :     4.840010
      px      :     1.502464
      py      :     1.545260
      dz2     :     0.007826  d :     0.069625
      dxz     :     0.010386
      dyz     :     0.010933
      dx2y2   :     0.025680
      dxy     :     0.014801

  8 C s       :     2.865248  s :     2.865248
      pz      :     1.111337  p :     3.033217
      px      :     0.832414
      py      :     1.089466
      dz2     :     0.017948  d :     0.123570
      dxz     :     0.027092
      dyz     :     0.020861
      dx2y2   :     0.036317
      dxy     :     0.021352

  9 C s       :     2.874784  s :     2.874784
      pz      :     1.109795  p :     3.237813
      px      :     1.064843
      py      :     1.063175
      dz2     :     0.016689  d :     0.097663
      dxz     :     0.024658
      dyz     :     0.018139
      dx2y2   :     0.022402
      dxy     :     0.015776

 10 C s       :     2.887725  s :     2.887725
      pz      :     1.094372  p :     3.211965
      px      :     1.059736
      py      :     1.057856
      dz2     :     0.022981  d :     0.095845
      dxz     :     0.023959
      dyz     :     0.020434
      dx2y2   :     0.014021
      dxy     :     0.014450

 11 C s       :     2.919137  s :     2.919137
      pz      :     1.134616  p :     3.339183
      px      :     1.108752
      py      :     1.095814
      dz2     :     0.011595  d :     0.067213
      dxz     :     0.003459
      dyz     :     0.019639
      dx2y2   :     0.017436
      dxy     :     0.015084

 12 C s       :     2.910065  s :     2.910065
      pz      :     1.112645  p :     3.332737
      px      :     1.085131
      py      :     1.134961
      dz2     :     0.013072  d :     0.073060
      dxz     :     0.017796
      dyz     :     0.017725
      dx2y2   :     0.019167
      dxy     :     0.005299

 13 C s       :     2.873930  s :     2.873930
      pz      :     1.030407  p :     3.203889
      px      :     1.101710
      py      :     1.071772
      dz2     :     0.006375  d :     0.079728
      dxz     :     0.012737
      dyz     :     0.010432
      dx2y2   :     0.024310
      dxy     :     0.025874

 14 H s       :     0.795189  s :     0.795189
      pz      :     0.007448  p :     0.039680
      px      :     0.009101
      py      :     0.023131

 15 H s       :     0.795321  s :     0.795321
      pz      :     0.010565  p :     0.039619
      px      :     0.014120
      py      :     0.014934

 16 H s       :     0.773251  s :     0.773251
      pz      :     0.009073  p :     0.042943
      px      :     0.008923
      py      :     0.024948

 17 H s       :     0.775542  s :     0.775542
      pz      :     0.006249  p :     0.040960
      px      :     0.006719
      py      :     0.027992

 18 H s       :     0.778337  s :     0.778337
      pz      :     0.025611  p :     0.041118
      px      :     0.007226
      py      :     0.008282

 19 H s       :     0.784658  s :     0.784658
      pz      :     0.016983  p :     0.040326
      px      :     0.016907
      py      :     0.006436

 20 H s       :     0.812912  s :     0.812912
      pz      :     0.007079  p :     0.039049
      px      :     0.023121
      py      :     0.008848

 21 H s       :     0.809100  s :     0.809100
      pz      :     0.018080  p :     0.039207
[...]
 34:    909.49   0.005854   29.58  0.002009  (-0.039538 -0.012592 -0.016938)
 35:    960.24   0.003098   15.66  0.001007  (-0.028364  0.013357  0.004888)
 36:    996.54   0.000211    1.06  0.000066  (-0.001846  0.003589  0.007049)
 37:    998.57   0.000055    0.28  0.000017  ( 0.001511  0.001073  0.003709)
 38:   1000.72   0.010698   54.06  0.003336  (-0.057040  0.004978  0.007604)
 39:   1006.32   0.041040  207.40  0.012727  (-0.111959 -0.011794 -0.007262)
 40:   1014.70   0.005543   28.01  0.001705  (-0.039418 -0.008794 -0.008580)
 41:   1015.76   0.004336   21.91  0.001332  ( 0.029691  0.020683  0.004771)
 42:   1026.35   0.000008    0.04  0.000003  ( 0.001483  0.000512 -0.000336)
 43:   1063.19   0.000251    1.27  0.000074  ( 0.001785 -0.004920 -0.006795)
 44:   1090.94   0.010648   53.81  0.003046  (-0.055097 -0.002686 -0.001724)
 45:   1091.53   0.023108  116.78  0.006607  ( 0.079238 -0.006568  0.016878)
 46:   1107.34   0.005998   30.31  0.001690  ( 0.034537  0.017467  0.013868)
 47:   1115.89   0.022082  111.59  0.006175  ( 0.048619  0.057834 -0.021601)
 48:   1125.47   0.006326   31.97  0.001754  ( 0.029772 -0.025226  0.015205)
 49:   1166.98   0.009050   45.73  0.002420  ( 0.035597  0.033952 -0.000338)
 50:   1217.65   0.022015  111.26  0.005642  (-0.015222  0.071385 -0.017736)
 51:   1238.46   0.023347  117.99  0.005883  (-0.071234 -0.017762  0.022207)
 52:   1241.41   0.016299   82.37  0.004097  ( 0.063317 -0.002991  0.008903)
 53:   1252.64   0.002420   12.23  0.000603  (-0.021841 -0.011126  0.001447)
 54:   1282.77   0.006603   33.37  0.001606  ( 0.037396 -0.000373 -0.014412)
 55:   1302.72   0.014694   74.26  0.003520  (-0.033406 -0.048917 -0.003330)
 56:   1356.46   0.000956    4.83  0.000220  ( 0.009322 -0.010209 -0.005357)
 57:   1362.35   0.020472  103.46  0.004689  (-0.062066 -0.025556  0.013567)
 58:   1388.09   0.027443  138.68  0.006170  ( 0.076420  0.010921 -0.014501)
 59:   1393.51   0.014125   71.38  0.003163  (-0.052473  0.019737  0.004501)
 60:   1403.35   0.002937   14.84  0.000653  (-0.018693 -0.012115  0.012531)
 61:   1423.25   0.010481   52.97  0.002298  (-0.031476 -0.035719  0.005621)
 62:   1445.08   0.010559   53.36  0.002280  (-0.046284 -0.010413 -0.005439)
 63:   1456.02   0.012045   60.87  0.002582  (-0.049311  0.012080  0.002018)
 64:   1463.85   0.009043   45.70  0.001928  ( 0.038890  0.020110 -0.003304)
 65:   1469.31   0.004348   21.97  0.000924  (-0.017952  0.021471 -0.011843)
 66:   1473.66   0.010754   54.35  0.002277  ( 0.019437 -0.022244 -0.037479)
 67:   1513.06   0.001989   10.05  0.000410  (-0.009066  0.018088  0.000938)
 68:   1536.50   0.003371   17.04  0.000685  ( 0.017048  0.012311  0.015571)
 69:   1552.78   0.156709  791.94  0.031494  ( 0.174297  0.017592 -0.028377)
 70:   1598.20   0.015797   79.83  0.003084  ( 0.036336  0.037978  0.017940)
 71:   1652.94   0.241231  1219.08  0.045543  ( 0.213179 -0.006110 -0.007758)
 72:   1711.42   0.030144  152.34  0.005497  (-0.071878 -0.005554 -0.017298)
 73:   3039.10   0.017685   89.37  0.001816  ( 0.036552  0.020980  0.006303)
 74:   3054.16   0.002973   15.03  0.000304  (-0.012686 -0.000488  0.011943)
 75:   3092.96   0.000698    3.53  0.000070  (-0.000000  0.001077 -0.008321)
 76:   3094.62   0.002085   10.53  0.000210  (-0.006033  0.010738  0.007649)
 77:   3103.54   0.011644   58.85  0.001171  (-0.017427  0.028098 -0.008812)
 78:   3155.65   0.005743   29.02  0.000568  (-0.023140  0.001924 -0.005366)
 79:   3162.12   0.004761   24.06  0.000470  (-0.000773 -0.002572 -0.021508)
 80:   3165.18   0.004575   23.12  0.000451  (-0.007779 -0.009814  0.017152)
 81:   3170.91   0.000428    2.17  0.000042  ( 0.001487 -0.006047 -0.001841)
 82:   3194.42   0.003978   20.10  0.000389  ( 0.011296  0.008741 -0.013585)
 83:   3209.35   0.007342   37.11  0.000714  (-0.004568 -0.024003 -0.010814)
 84:   3211.83   0.006552   33.11  0.000637  (-0.025204 -0.000257 -0.001149)
 85:   3240.67   0.000908    4.59  0.000087  ( 0.002309 -0.008017 -0.004219)
 86:   3253.51   0.000317    1.60  0.000030  ( 0.002711  0.003941  0.002745)

* The epsilon (eps) is given for a Dirac delta lineshape.
** The dipole moment derivative (T) already includes vibrational overlap.

The first frequency considered to be a vibration is 7
The total number of vibrations considered is 80


--------------------------
THERMOCHEMISTRY AT 298.15K
--------------------------

Temperature         ...   298.15 K
Pressure            ...     1.00 atm
Total Mass          ...   189.26 AMU
Quasi RRHO          ...     True
Cut-Off Frequency   ...     1.00 cm^-1

Throughout the following assumptions are being made:
  (1) The electronic state is orbitally nondegenerate
  (2) There are no thermally accessible electronically excited states
  (3) Hindered rotations indicated by low frequency modes are not
      treated as such but are treated as vibrations and this may
      cause some error
  (4) All equations used are the standard statistical mechanics
      equations for an ideal gas
  (5) All vibrations are strictly harmonic

freq.      59.84  E(vib)   ...       0.51 
freq.      74.58  E(vib)   ...       0.49 
freq.     103.12  E(vib)   ...       0.46 
freq.     137.56  E(vib)   ...       0.42 
freq.     164.54  E(vib)   ...       0.39 
freq.     203.85  E(vib)   ...       0.35 
freq.     243.81  E(vib)   ...       0.31 
freq.     263.02  E(vib)   ...       0.29 
freq.     326.26  E(vib)   ...       0.24 
freq.     362.54  E(vib)   ...       0.22 
freq.     378.12  E(vib)   ...       0.21 
freq.     405.70  E(vib)   ...       0.19 
freq.     426.60  E(vib)   ...       0.18 
freq.     445.66  E(vib)   ...       0.17 
freq.     510.25  E(vib)   ...       0.14 
freq.     539.91  E(vib)   ...       0.12 
freq.     589.24  E(vib)   ...       0.10 
freq.     673.00  E(vib)   ...       0.08 
freq.     678.90  E(vib)   ...       0.08 
freq.     702.94  E(vib)   ...       0.07 
freq.     728.38  E(vib)   ...       0.06 
freq.     748.88  E(vib)   ...       0.06 
freq.     771.26  E(vib)   ...       0.05 
freq.     834.55  E(vib)   ...       0.04 
freq.     876.31  E(vib)   ...       0.04 
freq.     879.80  E(vib)   ...       0.04 
freq.     885.66  E(vib)   ...       0.04 
freq.     909.49  E(vib)   ...       0.03 
freq.     960.24  E(vib)   ...       0.03 
freq.     996.54  E(vib)   ...       0.02 
freq.     998.57  E(vib)   ...       0.02 
freq.    1000.72  E(vib)   ...       0.02 
freq.    1006.32  E(vib)   ...       0.02 
freq.    1014.70  E(vib)   ...       0.02 
freq.    1015.76  E(vib)   ...       0.02 
freq.    1026.35  E(vib)   ...       0.02 
freq.    1063.19  E(vib)   ...       0.02 
freq.    1090.94  E(vib)   ...       0.02 
freq.    1091.53  E(vib)   ...       0.02 
freq.    1107.34  E(vib)   ...       0.02 
freq.    1115.89  E(vib)   ...       0.01 
freq.    1125.47  E(vib)   ...       0.01 
freq.    1166.98  E(vib)   ...       0.01 
freq.    1217.65  E(vib)   ...       0.01 
freq.    1238.46  E(vib)   ...       0.01 
freq.    1241.41  E(vib)   ...       0.01 
freq.    1252.64  E(vib)   ...       0.01 
freq.    1282.77  E(vib)   ...       0.01 
freq.    1302.72  E(vib)   ...       0.01 
freq.    1356.46  E(vib)   ...       0.01 
freq.    1362.35  E(vib)   ...       0.01 
freq.    1388.09  E(vib)   ...       0.00 
freq.    1393.51  E(vib)   ...       0.00 
freq.    1403.35  E(vib)   ...       0.00 
freq.    1423.25  E(vib)   ...       0.00 
freq.    1445.08  E(vib)   ...       0.00 
freq.    1456.02  E(vib)   ...       0.00 
freq.    1463.85  E(vib)   ...       0.00 
freq.    1469.31  E(vib)   ...       0.00 
freq.    1473.66  E(vib)   ...       0.00 
freq.    1513.06  E(vib)   ...       0.00 
freq.    1536.50  E(vib)   ...       0.00 
freq.    1552.78  E(vib)   ...       0.00 
freq.    1598.20  E(vib)   ...       0.00 
freq.    1652.94  E(vib)   ...       0.00 
freq.    1711.42  E(vib)   ...       0.00 
freq.    3039.10  E(vib)   ...       0.00 
freq.    3054.16  E(vib)   ...       0.00 
freq.    3092.96  E(vib)   ...       0.00 
freq.    3094.62  E(vib)   ...       0.00 
freq.    3103.54  E(vib)   ...       0.00 
freq.    3155.65  E(vib)   ...       0.00 
freq.    3162.12  E(vib)   ...       0.00 
freq.    3165.18  E(vib)   ...       0.00 
freq.    3170.91  E(vib)   ...       0.00 
freq.    3194.42  E(vib)   ...       0.00 
freq.    3209.35  E(vib)   ...       0.00 
freq.    3211.83  E(vib)   ...       0.00 
freq.    3240.67  E(vib)   ...       0.00 
freq.    3253.51  E(vib)   ...       0.00 

------------
INNER ENERGY
------------

The inner energy is: U= E(el) + E(ZPE) + E(vib) + E(rot) + E(trans)
    E(el)   - is the total energy from the electronic structure calculation
              = E(kin-el) + E(nuc-el) + E(el-el) + E(nuc-nuc)
    E(ZPE)  - the the zero temperature vibrational energy from the frequency calculation
    E(vib)  - the the finite temperature correction to E(ZPE) due to population
              of excited vibrational states
    E(rot)  - is the rotational thermal energy
    E(trans)- is the translational thermal energy

Summary of contributions to the inner energy U:
Electronic energy                ...   -595.95379528 Eh
Zero point energy                ...      0.24282492 Eh     152.37 kcal/mol
Thermal vibrational correction   ...      0.00920749 Eh       5.78 kcal/mol
Thermal rotational correction    ...      0.00141627 Eh       0.89 kcal/mol
Thermal translational correction ...      0.00141627 Eh       0.89 kcal/mol
-----------------------------------------------------------------------
Total thermal energy                   -595.69893033 Eh


Summary of corrections to the electronic energy:
(perhaps to be used in another calculation)
Total thermal correction                  0.01204003 Eh       7.56 kcal/mol
Non-thermal (ZPE) correction              0.24282492 Eh     152.37 kcal/mol
-----------------------------------------------------------------------
Total correction                          0.25486495 Eh     159.93 kcal/mol


--------
ENTHALPY
--------

The enthalpy is H = U + kB*T
                kB is Boltzmann's constant
Total thermal energy              ...   -595.69893033 Eh 
Thermal Enthalpy correction       ...      0.00094421 Eh       0.59 kcal/mol
-----------------------------------------------------------------------
Total Enthalpy                    ...   -595.69798612 Eh


Note: Only C1 symmetry has been detected, increase convergence thresholds 
      if your molecule has a higher symmetry. Symmetry factor of 1.0 is   
      used for the rotational entropy correction. 
 

Note: Rotational entropy computed according to Herzberg 
Infrared and Raman Spectra, Chapter V,1, Van Nostrand Reinhold, 1945 
Point Group:  C1, Symmetry Number:   1  
Rotational constants in cm-1:     0.052320     0.013288     0.012208 

Vibrational entropy computed according to the QRRHO of S. Grimme
Chem.Eur.J. 2012 18 9955 using a reference frequency of 100.0 cm-1


-------
ENTROPY
-------

The entropy contributions are T*S = T*(S(el)+S(vib)+S(rot)+S(trans))
     S(el)   - electronic entropy
     S(vib)  - vibrational entropy
     S(rot)  - rotational entropy
     S(trans)- translational entropy
The entropies will be listed as multiplied by the temperature to get
units of energy

Electronic entropy                ...      0.00000000 Eh      0.00 kcal/mol
Vibrational entropy               ...      0.01548708 Eh      9.72 kcal/mol
Rotational entropy                ...      0.01502336 Eh      9.43 kcal/mol
Translational entropy             ...      0.01977474 Eh     12.41 kcal/mol
-----------------------------------------------------------------------
Final entropy term                ...      0.05028518 Eh     31.55 kcal/mol

In case the symmetry of your molecule has not been determined correctly
or in case you have a reason to use a different symmetry number we print 
out the resulting rotational entropy values for sn=1,12:

 non-linear molecules -----------------------------------
|  sn= 1 | S(rot)=       0.01502336 Eh      9.43 kcal/mol|
|  sn= 2 | S(rot)=       0.01436891 Eh      9.02 kcal/mol|
|  sn= 3 | S(rot)=       0.01398608 Eh      8.78 kcal/mol|
|  sn= 4 | S(rot)=       0.01371445 Eh      8.61 kcal/mol|
|  sn= 5 | S(rot)=       0.01350376 Eh      8.47 kcal/mol|
|  sn= 6 | S(rot)=       0.01333162 Eh      8.37 kcal/mol|
|  sn= 7 | S(rot)=       0.01318607 Eh      8.27 kcal/mol|
|  sn= 8 | S(rot)=       0.01306000 Eh      8.20 kcal/mol|
|  sn= 9 | S(rot)=       0.01294879 Eh      8.13 kcal/mol|
|  sn=10 | S(rot)=       0.01284931 Eh      8.06 kcal/mol|
|  sn=11 | S(rot)=       0.01275932 Eh      8.01 kcal/mol|
|  sn=12 | S(rot)=       0.01267716 Eh      7.96 kcal/mol|
 linear molecules ---------------------------------------
|  Dinfh | S(rot)=       0.00948552 Eh      5.95 kcal/mol|
|  Cinfv | S(rot)=       0.01013998 Eh      6.36 kcal/mol|
 --------------------------------------------------------


-------------------
GIBBS FREE ENERGY
-------------------

The Gibbs free energy is G = H - T*S

Total enthalpy                    ...   -595.69798612 Eh 
Total entropy correction          ...     -0.05028518 Eh    -31.55 kcal/mol
-----------------------------------------------------------------------
Final Gibbs free energy         ...   -595.74827130 Eh

For completeness - the Gibbs free energy minus the electronic energy
G-E(el)                           ...      0.20552398 Eh    128.97 kcal/mol


Maximum memory used throughout the entire PROP-calculation: 270.3 MB

--------------------------------
SUGGESTED CITATIONS FOR THIS RUN
--------------------------------

Below you find a list of papers that are relevant to this ORCA run
We neither can nor want to force you to cite these papers, but we appreciate if you do
You receive ORCA, which is the product of decades of hard work by many enthusiastic individuals, for free
The only thing we kindly ask in return is that you cite our papers,
We deeply appreciate it, if you show your appreciation for ORCA by not just citing the generic ORCA reference.

Please note that relegating all ORCA citations to the supporting information does *not* help us.
SI sections are not indexed - citations you put there will not count into any citation statistics
But we need these citations in order to attract the funding resources that allow us to do what we are doing

Therefore, if you are a happy ORCA user, please consider citing a few of the papers listed below in the main body of your paper

In addition to the list printed below, the program has created the file hat_ts_freq.bibtex that contains the list in bibtex format
You can import this file easily into all common literature databanks and citation aid programs


List of essential papers. We consider these as the minimum necessary citations

  1. Neese, F.
     Software update: the ORCA program system, version 6.0
     WIRES Comput. Molec. Sci. 2025 15(1), e70019
     doi.org/10.1002/wcms.7019

List of papers to cite with high priority. The work reported in these papers was absolutely
necessary for this run to complete.
Our perspective: the developers of density functionals and basis sets usually get cited in chemistry papers
Good! But without the algorithms to do something with them, the functionals or basis sets would not do anything.
Hence, in our opinion, the algorithm design and method developments papers are equally worthy of getting cited

  1. Neese, F.
     An improvement of the resolution of the identity approximation for the formation of the Coulomb matrix
     J. Comp. Chem. 2003 24(14), 1740-1747
     doi.org/10.1002/jcc.10318
  2. Neese, F.
     Definition of corresponding orbitals and the diradical character in broken symmetry DFT calculations on spin coupled systems
     J. Phys. Chem. Solids 2004 65(4), 781-785
     doi.org/10.1016/j.jpcs.2003.11.015
  3. Neese, F.; Wennmohs, F.; Hansen, A.; Becker, U.
     Efficient, approximate and parallel Hartree-Fock and hybrid DFT calculations. A 'chain-of-spheres' algorithm for the Hartree-Fock exchange
     Chem. Phys. 2009 356(1-3), 98-109
     doi.org/10.1016/j.chemphys.2008.10.036
  4. Grimme, S.; Antony, J.; Ehrlich, S.; Krieg, H.
     A consistent and accurate ab initio parametrization of density functional dispersion correction (DFT-D) for the 94 elements H-Pu
     J. Chem. Phys. 2010 132 , 154104
     doi.org/10.1063/1.3382344
  5. Bykov, D.; Petrenko, T.; Izsak, R.; Kossmann, S.; Becker, U.; Valeev, E.; Neese, F.
     Efficient implementation of the analytic second derivatives of Hartree-Fock and hybrid DFT energies: a detailed analysis of different approximations
     Molec. Phys. 2015 113 , 1961-1977
     doi.org/10.1080/00268976.2015.1025114
  6. Stoychev, G.L.; Auer, A.A.; Neese, F.
     Automatic Generation of Auxiliary Basis Sets
     J. Theo. Comp. Chem. 2017 13 , 554-562
     doi.org/10.1021/acs.jctc.6b01041
  7. Garcia-Rates, M.; Neese, F.
     Efficient implementation of the analytical second derivatives of hartree-fock and hybrid DFT energies within the framework of the conductor-like polarizable continuum model
     J. Comput. Chem. 2019 40 , 1816-1828
     doi.org/10.1002/jcc.25833
  8. Garcia-Rates, M.; Neese, F.
     Effect of the Solute Cavity on the Solvation Energy and its Derivatives within the Framework of the Gaussian Charge Scheme
     J. Comput. Chem. 2020 41 , 922-939
     doi.org/10.1002/jcc.26139
  9. Helmich-Paris, B.; de Souza, B.; Neese, F.; Izsák, R.
     An improved chain of spheres for exchange algorithm
     J. Chem. Phys. 2021 155(10), 104109
     doi.org/10.1063/5.0058766
 10. Neese, F.
     The SHARK Integral Generation and Digestion System
     J. Comp. Chem. 2022 44(3), 381
     doi.org/10.1002/jcc.26942

List of suggested additional citations. These are papers that are important in the 'surrounding' of 
of this run, or papers that preceded the highly important papers. If you like your results we are grateful for a citation.

  1. Izsak, R.; Neese, F.
     An overlap fitted chain of spheres exchange method
     J. Chem. Phys. 2011 135 , 144105
     doi.org/10.1063/1.3646921
  2. Izsak, R.; Hansen, A.; Neese, F.
     The resolution of identity and chain of spheres approximations for the LPNO-CCSD singles Fock term
     Molec. Phys. 2012 110 , 2413-2417
     doi.org/10.1080/00268976.2012.687466
  3. Neese, F.
     The ORCA program system
     WIRES Comput. Molec. Sci. 2012 2(1), 73-78
     doi.org/10.1002/wcms.81
  4. Izsak, R.; Neese, F.; Klopper, W.
     Robust fitting techniques in the chain of spheres approximation to the Fock exchange: The role of the complementary space
     J. Chem. Phys. 2013 139 , 
     doi.org/10.1063/1.4819264
  5. Neese, F.
     Software update: the ORCA program system, version 4.0
     WIRES Comput. Molec. Sci. 2018 8(1), 1-6
     doi.org/10.1002/wcms.1327
  6. Neese, F.; Wennmohs, F.; Becker, U.; Riplinger, C.
     The ORCA quantum chemistry program package
     J. Chem. Phys. 2020 152(22), 224108
     doi.org/10.1063/5.0004608
  7. Neese, F.
     Software update: The ORCA program system—Version 5.0
     WIRES Comput. Molec. Sci. 2022 12(1), e1606
     doi.org/10.1002/wcms.1606

List of optional additional citations

  1. Neese, F.
     Approximate second-order SCF convergence for spin unrestricted wavefunctions
     Chem. Phys. Lett. 2000 325(1-3), 93-98
     doi.org/10.1016/s0009-2614(00)00662-x

Timings for individual modules:

Sum of individual times          ...      486.277 sec (=   8.105 min)
Startup calculation              ...        1.800 sec (=   0.030 min)   0.4 %
SCF iterations                   ...       66.113 sec (=   1.102 min)  13.6 %
Property integrals               ...      150.001 sec (=   2.500 min)  30.8 %
SCF Response                     ...      132.036 sec (=   2.201 min)  27.2 %
Property calculations            ...      136.327 sec (=   2.272 min)  28.0 %
                             ****ORCA TERMINATED NORMALLY****
TOTAL RUN TIME: 0 days 0 hours 8 minutes 6 seconds 934 msec
