
                                 *****************
                                 * O   R   C   A *
                                 *****************

                                            #,                                       
                                            ###                                      
                                            ####                                     
                                            #####                                    
                                            ######                                   
                                           ########,                                 
                                     ,,################,,,,,                         
                               ,,#################################,,                 
                          ,,##########################################,,             
                       ,#########################################, ''#####,          
                    ,#############################################,,   '####,        
                  ,##################################################,,,,####,       
                ,###########''''           ''''###############################       
              ,#####''   ,,,,##########,,,,          '''####'''          '####       
            ,##' ,,,,###########################,,,                        '##       
           ' ,,###''''                  '''############,,,                           
         ,,##''                                '''############,,,,        ,,,,,,###''
      ,#''                                            '''#######################'''  
     '                                                          ''''####''''         
             ,#######,   #######,   ,#######,      ##                                
            ,#'     '#,  ##    ##  ,#'     '#,    #''#        ,####,    ,#,          
            ##       ##  ##   ,#'  ##            #'  '#       #'       ,# #          
            ##       ##  #######   ##           ,######,      #####,      #          
            '#,     ,#'  ##    ##  '#,     ,#' ,#      #,     #,   #      #          
             '#######'   ##     ##  '#######'  #'      '#     '####' #    #          



                #########################################################
                #                        -***-                          #
                #          Department of theory and spectroscopy        #
                #                                                       #
                #                      Frank Neese                      #
                #                                                       #
                #     Directorship, Architecture, Infrastructure        #
                #                    SHARK, DRIVERS                     #
                #        Core code/Algorithms in most modules           #
                #                                                       #
                #        Max Planck Institute fuer Kohlenforschung      #
                #                Kaiser Wilhelm Platz 1                 #
                #                 D-45470 Muelheim/Ruhr                 #
                #                      Germany                          #
                #                                                       #
                #                  All rights reserved                  #
                #                        -***-                          #
                #########################################################


                         Program Version 6.1.0  -  RELEASE   -
                                (GIT: $679e74b$)
                          ($2025-06-10 18:02:51 +0200$)


 With contributions from (in alphabetic order):
[Max-Planck-Institut fuer Kohlenforschung]                               
  Daniel Aravena         : Magnetic Suceptibility                        
  Michael Atanasov       : Ab Initio Ligand Field Theory (pilot matlab implementation)
  Alexander A. Auer      : GIAO ZORA, VPT2 properties, NMR spectrum      
  Ute Becker             : All parallelization in ORCA, NUMFREQ, NUMCALC 
  Giovanni Bistoni       : ED, misc. LED, open-shell LED, HFLD           
  Dmytro Bykov           : pre 5.0 version of the SCF Hessian            
  Marcos Casanova-Páez   : Triplet and SCS-CIS(D). UHF-(DLPNO)-IP/EA/STEOM-CCSD. UHF-CVS-IP/STEOM-CCSD   
  Vijay G. Chilkuri      : MRCI spin determinant printing, contributions to CSF-ICE 
  Pauline Colinet        : FMM embedding                                 
  Dipayan Datta          : RHF DLPNO-CCSD density                        
  Achintya Kumar Dutta   : EOM-CC, STEOM-CC                              
  Nicolas Foglia         : Exact transition moments, OPA infrastructure, MCD improvements    
  Dmitry Ganyushin       : Spin-Orbit,Spin-Spin,Magnetic field MRCI      
  Miquel Garcia-Rates    : C-PCM and meta-GGA Hessian, CCSD/C-PCM, Gaussian charge scheme 
  Tiago L. C. Gouveia    : GS-ROHF, GS-ROCIS                             
  Yang Guo               : DLPNO-NEVPT2, F12-NEVPT2, CIM, IAO-localization        
  Andreas Hansen         : Spin unrestricted coupled pair/coupled cluster methods 
  Ingolf Harden          : AUTO-CI MPn and infrastructure                
  Benjamin Helmich-Paris : MC-RPA, TRAH-(SCF,CASSCF), AVAS, COSX integrals, SCF dyn. polar., MC-PDFT, srDFT 
  Lee Huntington         : MR-EOM, pCC                                   
  Robert Izsak           : Overlap fitted RIJCOSX, COSX-SCS-MP3, EOM     
  Riya Kayal             : Wick's Theorem for AUTO-CI, AUTO-CI UHF-CCSDT 
  Emily Kempfer          : AUTO-CI RHF CISDT and CCSDT, approximate NEVPT4
  Christian Kollmar      : KDIIS, OOCD, Brueckner-CCSD(T), CCSD density, CASPT2, CASPT2-K, improved NEVPT2 
  Axel Koslowski         : Symmetry handling                             
  Simone Kossmann        : meta-GGA functionals, TD-DFT gradient, OOMP2, (MP2 Hessian; deprecated post 5.0) 
  Lucas Lang             : DCDCAS, Hyperfine gauge corrections, ICE-SOC+SSC
  Marvin Lechner         : AUTO-CI (C++ implementation), FIC-MRCC        
  Spencer Leger          : CASSCF response                               
  Dagmar Lenk            : GEPOL surface, SMD, ORCA-2-JSON               
  Dimitrios Liakos       : Extrapolation schemes; Compound Job, Property file
  Dimitrios Manganas     : Further ROCIS development; embedding schemes. LFT, Crystal Embedding 
  Dimitrios Pantazis     : SARC Basis sets                               
  Anastasios Papadopoulos: AUTO-CI, single reference methods and gradients 
  Taras Petrenko         : pre 6.0 DFT Hessian and TD-DFT gradient,  ECA, NRVS 
  Petra Pikulova         : Analytic Raman intensities                    
  Peter Pinski           : DLPNO-MP2, DLPNO-MP2 Gradient                 
  Shashank Vittal Rao    : ES-AILFT, MagRelax                            
  Christoph Reimann      : Effective Core Potentials                     
  Marius Retegan         : Local ZFS, SOC                                
  Christoph Riplinger    : Optimizer, TS searches, QM/MM, DLPNO-CCSD(T), (RO)-DLPNO pert. Triples 
  Michael Roemelt        : Original ROCIS implementation, recursive CI coupling coefficients
  Masaaki Saitow         : Open-shell DLPNO-CCSD energy and density      
  Barbara Sandhoefer     : DKH picture change effects                    
  Yorick L. A. Schmerwitz: GMF and freeze-and-release deltaSCF, NEB S-IDPP initial path                    
  Kantharuban Sivalingam : CASSCF convergence/infrastructure, NEVPT2, NEVPT3, NEVPT4(SD), FIC-MRCI and CEPA variants
  Bernardo de Souza      : ESD, SOC TD-DFT                               
  Georgi L. Stoychev     : AutoAux, RI-MP2 NMR, DLPNO-MP2 response, X2C  
  Van Anh Tran           : RI-MP2 g-tensors                              
  Willem Van den Heuvel  : Paramagnetic NMR                              
  Zikuan Wang            : NOTCH, Electric field optimization            
  Frank Wennmohs         : Technical directorship and infrastructure     
  Hang Xu                : AUTO-CI-Response properties                   
                                                                         
[FACCTs GmbH]                                                            
  Markus Bursch, Nicolas Foglia, Miquel Garcia-Rates, Ingolf Harden, Hagen Neugebauer, Anastasios Papadopoulos, 
  Christoph Riplinger, Bernardo de Souza, Georgi L. Stoychev                                                    
                                                                 
  APM, various basis sets, CI-OPT, improved COSX, DLPNO-Multilevel,           
  DOCKER, DRACO, updates on ESD, Fragmentator, GOAT, IRC, LR-CPCM, L-BFGS, MBIS, meta-GGA TD-DFT gradient, ML-optimized integration grids, 
  MM, NACMEs, nearIR, NEB, NEB-TS, NL-DFT gradient (VV10), 2- and 3-layer-ONIOM, interface openCOSMO-RS, QMMM,   
  Crystal-QMMM, RESP, rigid body optimization, SF, symmetry and pop. for TD-DFT, various functionals, SOLVATOR                                   
                                                                         
[Other institutions]                                                     
  V. Asgeirsson          : NEB                                           
  Christoph Bannwarth    : sTDA-DFT, sTD-DFT, PBEh-3c, B97-3c, D3        
  Giovanni Bistoni       : ETS/NOCV, ADLD/ADEX, COVALED                  
  Martin Brehm           : Molecular dynamics                            
  Ronald Cardenas        : ETS/NOCV                                      
  Martina Colucci        : COVALED                                       
  Sebastian Ehlert       : rSCAN, r2SCAN, r2SCAN-3c, D4, dhf basis sets  
  Marvin Friede          : D4 for Fr, Ra, Ac-Lr                          
  Lars Goerigk           : TD-DFT with DH, B97 family of functionals     
  Stefan Grimme          : VdW corrections, initial TS optimization, DFT functionals, gCP, sTDA/sTD-DF 
  Waldemar Hujo          : DFT-NL                                        
  H. Jonsson             : NEB                                           
  Holger Kruse           : gCP                                           
  Marcel Mueller         : wB97X-3c, vDZP basis set                      
  Hagen Neugebauer       : wr2SCAN, Native XTB                           
  Gianluca Regni         : ADLD/ADEX                                     
  Tobias Risthaus        : pre 6.0 range-separated hybrid DFT and stability analysis
  Lukas Wittmann         : regularized MP2, r2SCAN double-hybrids, wr2SCAN        
                                                                         
We gratefully acknowledge several colleagues who have allowed us to      
interface, adapt or use parts of their codes:                            
  Ed Valeev, F. Pavosevic, A. Kumar             : LibInt (2-el integral package), F12 methods 
  Garnet Chan, S. Sharma, J. Yang, R. Olivares  : DMRG                   
  Ulf Ekstrom                                   : XCFun DFT Library      
  Mihaly Kallay                                 : mrcc  (arbitrary order and MRCC methods)
  Frank Weinhold                                : gennbo (NPA and NBO analysis)           
  Simon Mueller                                 : openCOSMO-RS                            
  Christopher J. Cramer and Donald G. Truhlar   : smd solvation model                     
  S Lehtola, MJT Oliveira, MAL Marques          : LibXC Library                           
  Liviu Ungur et al                             : ANISO software                          


 Your calculation uses the libint2 library for the computation of 2-el integrals
 For citations please refer to: http://libint.valeyev.net

 Your ORCA version has been built with support for libXC version: 7.0.0
 For citations please refer to: https://libxc.gitlab.io

 This ORCA versions uses:
   CBLAS   interface :  Fast vector & matrix operations
   LAPACKE interface :  Fast linear algebra routines
   SCALAPACK package :  Parallel linear algebra routines
   Shared memory     :  Shared parallel matrices
   BLAS/LAPACK       :  OpenBLAS 0.3.29  USE64BITINT DYNAMIC_ARCH NO_AFFINITY Cooperlake SINGLE_THREADED
        Core in use  :  Cooperlake
   Copyright (c) 2011-2014, The OpenBLAS Project


  ***********************************
  * Starting time: Thu Jul  2 18:40:04 2026
  * Host name:     drdoom
  * Process ID:    281574
  * Working dir.:  /home/rpaton
  ***********************************

NOTE: MaxCore=6000 MB was set to SCF,MP2,MDCI,CIPSI,MRCI,RASCI and CIS
      => If you want to overwrite this, your respective input block should be placed after the MaxCore statement
Your calculation utilizes the atom-pairwise dispersion correction
with the zero-damping scheme (D30)


Your calculation utilizes the SMD solvation module
Please cite in your paper:
Marenich, A. V.; Cramer, C. J.; Truhlar, D. G. J. Phys. Chem. B 2009, 113, 6378 

XCFun DFT library Copyright 2009-2010 Ulf Ekstrom and contributors.
See http://admol.org/xcfun for more information.
This is free software; see the source code for copying conditions.
There is ABSOLUTELY NO WARRANTY; not even for MERCHANTABILITY or FITNESS FOR A PARTICULAR PURPOSE.
For details see the documentation.
Scientific users of this library should cite U. Ekstrom, L. Visscher, R. Bast, A. J. Thorvaldsen and K. Ruud;
J.Chem.Theor.Comp. 2010, DOI: 10.1021/ct100117s
XCFun Version 0.99 

================================================================================

----- Orbital basis set information -----
Your calculation utilizes the basis: 6-31+G**
   H-He, Li-Ne : W. J. Hehre, R. Ditchfield and J.A. Pople, J. Chem. Phys. 56, 2257 (1972).
                 Note: He and Ne are unpublished basis sets taken from the Gaussian program.
                 Note: Li and B from J. D. Dill and J. A. Pople, J. Chem. Phys. 62, 2921 (1975).
   Na - Ar     : M. M. Francl, W. J. Pietro, W. J. Hehre, J. S. Binkley, M. S. Gordon, 
                 D. J. DeFrees and J. A. Pople, J. Chem. Phys. 77, 3654 (1982).
   K - Zn      : V. A. Rassolov, J. A. Pople, M. A. Ratner, and T. L. Windus, J. Chem. Phys. 109, 1223 (1998).
   Additional Pol./Diff. from the 6-311G equivalent.

----- AuxJ basis set information -----
Your calculation utilizes the AutoAux generation procedure.
  G. L. Stoychev, A. A. Auer, F. Neese, J. Chem. Theory Comput. 13, 554 (2017)

----- AuxC basis set information -----
Your calculation utilizes the AutoAux generation procedure.
  G. L. Stoychev, A. A. Auer, F. Neese, J. Chem. Theory Comput. 13, 554 (2017)

----- AuxJK basis set information -----
Your calculation utilizes the AutoAux generation procedure.
  G. L. Stoychev, A. A. Auer, F. Neese, J. Chem. Theory Comput. 13, 554 (2017)

----- AuxX basis set information -----
Your calculation utilizes the AutoAux generation procedure.
  G. L. Stoychev, A. A. Auer, F. Neese, J. Chem. Theory Comput. 13, 554 (2017)

================================================================================
                                        WARNINGS
                       Please study these warnings very carefully!
================================================================================


WARNING: The HFTyp is != UHF which is not allowed for FlipSpin
  ===> : Switching to HFTyp=UHF

WARNING: Functional chosen is sensitive to the integration grid.
         DEFGRID3 seems to be a minimum grid for robust results!

WARNING: Broken symmetry calculations need fully converged wavefunctions
  ===> : Setting SCFConvForced true
         You can overwrite this default with %scf ConvForced false 


================================================================================
                                       INPUT FILE
================================================================================
NAME = hat_gs_freq.inp
|  1> # Frequency-only re-run at the converged geometry from hat_gs.out
|  2> # (regenerates hat_gs_freq.hess for Kinisot)
|  3> ! m062x d3zero 6-31+g** autoaux Freq SMD(dichloromethane)
|  4> !pal16
|  5> %maxcore 6000 
|  6> %scf
|  7>   Flipspin 10
|  8>   FinalMs 0.0
|  9> end
| 10> 
| 11> *xyz 0 3
| 12>   C        3.274549      -1.305944      -0.586568
| 13>   N        4.104598      -0.510517       0.114595
| 14>   C        3.568179       0.619984       0.611005
| 15>   C        2.247806       0.999416       0.447224
| 16>   C        1.371077       0.157342      -0.289067
| 17>   C        0.017557       0.484445      -0.493614
| 18>   C       -1.045390      -0.279206      -1.210276
| 19>   O       -0.464570       1.631194       0.022890
| 20>   C       -1.860983       1.764866      -0.319103
| 21>   C       -2.351125       0.345207      -0.629868
| 22>   C       -2.852250      -0.407129       0.566320
| 23>   C       -3.758907      -1.570834       0.319713
| 24>   C       -2.002600      -0.427847       1.796759
| 25>   C        1.937990      -1.033692      -0.816960
| 26>   H        3.711851      -2.217584      -0.987868
| 27>   H        4.242542       1.259052       1.176935
| 28>   H        1.888286       1.928042       0.877199
| 29>   H       -0.971191      -1.358653      -1.044945
| 30>   H       -0.990905      -0.098286      -2.292267
| 31>   H       -3.127520       0.376092      -1.399478
| 32>   H       -3.192023      -2.461669      -0.002789
| 33>   H       -4.298771      -1.856497       1.229037
| 34>   H       -4.490747      -1.355758      -0.466420
| 35>   H       -1.670871       0.573601       2.093958
| 36>   H       -2.533742      -0.881017       2.639341
| 37>   H       -1.085168      -1.023774       1.633933
| 38>   H        1.338920      -1.725491      -1.400691
| 39>   H       -2.362655       2.236583       0.528289
| 40>   H       -1.931250       2.414497      -1.197194
| 41> *
| 42> 
| 43>                          ****END OF INPUT****
================================================================================

                       ****************************
                       * Single Point Calculation *
                       ****************************

---------------------------------
CARTESIAN COORDINATES (ANGSTROEM)
---------------------------------
  C      3.274549   -1.305944   -0.586568
  N      4.104598   -0.510517    0.114595
  C      3.568179    0.619984    0.611005
  C      2.247806    0.999416    0.447224
  C      1.371077    0.157342   -0.289067
  C      0.017557    0.484445   -0.493614
  C     -1.045390   -0.279206   -1.210276
  O     -0.464570    1.631194    0.022890
  C     -1.860983    1.764866   -0.319103
  C     -2.351125    0.345207   -0.629868
  C     -2.852250   -0.407129    0.566320
  C     -3.758907   -1.570834    0.319713
  C     -2.002600   -0.427847    1.796759
  C      1.937990   -1.033692   -0.816960
  H      3.711851   -2.217584   -0.987868
  H      4.242542    1.259052    1.176935
  H      1.888286    1.928042    0.877199
  H     -0.971191   -1.358653   -1.044945
  H     -0.990905   -0.098286   -2.292267
  H     -3.127520    0.376092   -1.399478
  H     -3.192023   -2.461669   -0.002789
  H     -4.298771   -1.856497    1.229037
  H     -4.490747   -1.355758   -0.466420
  H     -1.670871    0.573601    2.093958
  H     -2.533742   -0.881017    2.639341
  H     -1.085168   -1.023774    1.633933
  H      1.338920   -1.725491   -1.400691
  H     -2.362655    2.236583    0.528289
  H     -1.931250    2.414497   -1.197194

----------------------------
CARTESIAN COORDINATES (A.U.)
----------------------------
  NO LB      ZA    FRAG     MASS         X           Y           Z
   0 C     6.0000    0    12.011    6.188001   -2.467877   -1.108453
   1 N     7.0000    0    14.007    7.756566   -0.964737    0.216553
   2 C     6.0000    0    12.011    6.742881    1.171600    1.154632
   3 C     6.0000    0    12.011    4.247738    1.888623    0.845131
   4 C     6.0000    0    12.011    2.590960    0.297333   -0.546257
   5 C     6.0000    0    12.011    0.033178    0.915468   -0.932795
   6 C     6.0000    0    12.011   -1.975501   -0.527623   -2.287090
   7 O     8.0000    0    15.999   -0.877910    3.082510    0.043256
   8 C     6.0000    0    12.011   -3.516748    3.335113   -0.603017
   9 C     6.0000    0    12.011   -4.442982    0.652347   -1.190278
  10 C     6.0000    0    12.011   -5.389971   -0.769362    1.070190
  11 C     6.0000    0    12.011   -7.103305   -2.968446    0.604170
  12 C     6.0000    0    12.011   -3.784366   -0.808514    3.395382
  13 C     6.0000    0    12.011    3.662270   -1.953395   -1.543831
  14 H     1.0000    0     1.008    7.014382   -4.190626   -1.866800
  15 H     1.0000    0     1.008    8.017242    2.379263    2.224085
  16 H     1.0000    0     1.008    3.568343    3.643471    1.657666
  17 H     1.0000    0     1.008   -1.835285   -2.567482   -1.974660
  18 H     1.0000    0     1.008   -1.872539   -0.185734   -4.331757
  19 H     1.0000    0     1.008   -5.910156    0.710711   -2.644630
  20 H     1.0000    0     1.008   -6.032049   -4.651880   -0.005270
  21 H     1.0000    0     1.008   -8.123500   -3.508271    2.322543
  22 H     1.0000    0     1.008   -8.486282   -2.562011   -0.881406
  23 H     1.0000    0     1.008   -3.157489    1.083949    3.957007
  24 H     1.0000    0     1.008   -4.788078   -1.664881    4.987632
  25 H     1.0000    0     1.008   -2.050670   -1.934652    3.087686
  26 H     1.0000    0     1.008    2.530192   -3.260705   -2.646922
  27 H     1.0000    0     1.008   -4.464771    4.226529    0.998322
  28 H     1.0000    0     1.008   -3.649534    4.562738   -2.262369

--------------------------------
INTERNAL COORDINATES (ANGSTROEM)
--------------------------------
 C      0   0   0     0.000000000000     0.00000000     0.00000000
 N      1   0   0     1.346593853877     0.00000000     0.00000000
 C      2   1   0     1.346180055811   116.25983348     0.00000000
 C      3   2   1     1.383538115743   124.53704276     0.08135353
 C      4   3   2     1.421220179141   119.18015751     0.12616825
 C      5   4   3     1.407427525032   122.06260185   180.04745385
 C      6   5   4     1.492187520674   129.48803492   181.19857654
 O      6   5   4     1.346943241249   119.10228628     0.03466349
 C      8   6   5     1.443882502907   109.52184867   179.49037563
 C      9   8   6     1.533703276931   105.74596825    21.83671436
 C     10   9   8     1.499333669956   114.18137373    88.47681377
 C     11  10   9     1.495677523774   117.48205556   159.54759920
 C     11  10   9     1.495431205621   118.26127202   311.21519087
 C      1   2   3     1.383326275919   124.47409359   359.91911199
 H      1   2   3     1.087824534934   116.06034365   179.88321386
 H      3   2   1     1.087864940741   115.98612681   179.97949274
 H      4   3   2     1.084656341382   120.27802684   180.06633437
 H      7   6   5     1.094552720051   112.57354333    38.14372307
 H      7   6   5     1.098364778071   110.70052697   277.24477885
 H     10   9   8     1.093637339958   110.07962650   212.46419190
 H     12  11  10     1.104061595512   111.38892022    78.25965519
 H     12  11  10     1.095411623565   111.39419769   197.09645977
 H     12  11  10     1.095377818410   111.75047599   318.67480741
 H     13  11  10     1.096024393773   112.48340975    49.88541940
 H     13  11  10     1.094266557923   111.31598326   171.83684121
 H     13  11  10     1.106039226352   110.95371733   290.91670068
 H     14   1   2     1.085455020561   119.82683489   179.51126202
 H      9   8   6     1.091908844793   107.48877253   144.23515127
 H      9   8   6     1.094532636211   107.88175242   262.43770155

---------------------------
INTERNAL COORDINATES (A.U.)
---------------------------
 C      0   0   0     0.000000000000     0.00000000     0.00000000
 N      1   0   0     2.544693597449     0.00000000     0.00000000
 C      2   1   0     2.543911632429   116.25983348     0.00000000
 C      3   2   1     2.614508134596   124.53704276     0.08135353
 C      4   3   2     2.685716914579   119.18015751     0.12616825
 C      5   4   3     2.659652575653   122.06260185   180.04745385
 C      6   5   4     2.819825754528   129.48803492   181.19857654
 O      6   5   4     2.545353843897   119.10228628     0.03466349
 C      8   6   5     2.728542500056   109.52184867   179.49037563
 C      9   8   6     2.898279164098   105.74596825    21.83671436
 C     10   9   8     2.833330019585   114.18137373    88.47681377
 C     11  10   9     2.826420904595   117.48205556   159.54759920
 C     11  10   9     2.825955430743   118.26127202   311.21519087
 C      1   2   3     2.614107815345   124.47409359   359.91911199
 H      1   2   3     2.055690452785   116.06034365   179.88321386
 H      3   2   1     2.055766808695   115.98612681   179.97949274
 H      4   3   2     2.049703434634   120.27802684   180.06633437
 H      7   6   5     2.068404880035   112.57354333    38.14372307
 H      7   6   5     2.075608625699   110.70052697   277.24477885
 H     10   9   8     2.066675062350   110.07962650   212.46419190
 H     12  11  10     2.086374050498   111.38892022    78.25965519
 H     12  11  10     2.070027972452   111.39419769   197.09645977
 H     12  11  10     2.069964089967   111.75047599   318.67480741
 H     13  11  10     2.071185940328   112.48340975    49.88541940
 H     13  11  10     2.067864111983   111.31598326   171.83684121
 H     13  11  10     2.090111231179   110.95371733   290.91670068
 H     14   1   2     2.051212719551   119.82683489   179.51126202
 H      9   8   6     2.063408679865   107.48877253   144.23515127
 H      9   8   6     2.068366927078   107.88175242   262.43770155

---------------------
BASIS SET INFORMATION
---------------------
There are 4 groups of distinct atoms

 Group   1 Type C   : 11s5p1d contracted to 4s3p1d pattern {6311/311/1}
 Group   2 Type N   : 11s5p1d contracted to 4s3p1d pattern {6311/311/1}
 Group   3 Type O   : 11s5p1d contracted to 4s3p1d pattern {6311/311/1}
 Group   4 Type H   : 4s1p contracted to 2s1p pattern {31/1}

Atom   0C    basis set group =>   1
Atom   1N    basis set group =>   2
Atom   2C    basis set group =>   1
Atom   3C    basis set group =>   1
Atom   4C    basis set group =>   1
Atom   5C    basis set group =>   1
Atom   6C    basis set group =>   1
Atom   7O    basis set group =>   3
Atom   8C    basis set group =>   1
Atom   9C    basis set group =>   1
Atom  10C    basis set group =>   1
Atom  11C    basis set group =>   1
Atom  12C    basis set group =>   1
Atom  13C    basis set group =>   1
Atom  14H    basis set group =>   4
Atom  15H    basis set group =>   4
Atom  16H    basis set group =>   4
Atom  17H    basis set group =>   4
Atom  18H    basis set group =>   4
Atom  19H    basis set group =>   4
Atom  20H    basis set group =>   4
Atom  21H    basis set group =>   4
Atom  22H    basis set group =>   4
Atom  23H    basis set group =>   4
Atom  24H    basis set group =>   4
Atom  25H    basis set group =>   4
Atom  26H    basis set group =>   4
Atom  27H    basis set group =>   4
Atom  28H    basis set group =>   4
---------------------------------
AUXILIARY/J BASIS SET INFORMATION
---------------------------------
There are 4 groups of distinct atoms

 Group   1 Type C   : 16s13p12d2f contracted to 16s13p12d2f pattern {1111111111111111/1111111111111/111111111111/11}
 Group   2 Type N   : 16s13p12d3f contracted to 16s13p12d3f pattern {1111111111111111/1111111111111/111111111111/111}
 Group   3 Type O   : 16s13p12d3f contracted to 16s13p12d3f pattern {1111111111111111/1111111111111/111111111111/111}
 Group   4 Type H   : 10s2p1d contracted to 10s2p1d pattern {1111111111/11/1}

Atom   0C    basis set group =>   1
Atom   1N    basis set group =>   2
Atom   2C    basis set group =>   1
Atom   3C    basis set group =>   1
Atom   4C    basis set group =>   1
Atom   5C    basis set group =>   1
Atom   6C    basis set group =>   1
Atom   7O    basis set group =>   3
Atom   8C    basis set group =>   1
Atom   9C    basis set group =>   1
Atom  10C    basis set group =>   1
Atom  11C    basis set group =>   1
Atom  12C    basis set group =>   1
Atom  13C    basis set group =>   1
Atom  14H    basis set group =>   4
Atom  15H    basis set group =>   4
Atom  16H    basis set group =>   4
Atom  17H    basis set group =>   4
Atom  18H    basis set group =>   4
Atom  19H    basis set group =>   4
Atom  20H    basis set group =>   4
Atom  21H    basis set group =>   4
Atom  22H    basis set group =>   4
Atom  23H    basis set group =>   4
Atom  24H    basis set group =>   4
Atom  25H    basis set group =>   4
Atom  26H    basis set group =>   4
Atom  27H    basis set group =>   4
Atom  28H    basis set group =>   4
---------------------------------
AUXILIARY/C BASIS SET INFORMATION
---------------------------------
There are 4 groups of distinct atoms

 Group   1 Type C   : 16s13p12d2f contracted to 16s13p12d2f pattern {1111111111111111/1111111111111/111111111111/11}
 Group   2 Type N   : 16s13p12d3f contracted to 16s13p12d3f pattern {1111111111111111/1111111111111/111111111111/111}
 Group   3 Type O   : 16s13p12d3f contracted to 16s13p12d3f pattern {1111111111111111/1111111111111/111111111111/111}
 Group   4 Type H   : 10s2p1d contracted to 10s2p1d pattern {1111111111/11/1}

Atom   0C    basis set group =>   1
Atom   1N    basis set group =>   2
Atom   2C    basis set group =>   1
Atom   3C    basis set group =>   1
Atom   4C    basis set group =>   1
Atom   5C    basis set group =>   1
Atom   6C    basis set group =>   1
Atom   7O    basis set group =>   3
Atom   8C    basis set group =>   1
Atom   9C    basis set group =>   1
Atom  10C    basis set group =>   1
Atom  11C    basis set group =>   1
Atom  12C    basis set group =>   1
Atom  13C    basis set group =>   1
Atom  14H    basis set group =>   4
Atom  15H    basis set group =>   4
Atom  16H    basis set group =>   4
Atom  17H    basis set group =>   4
Atom  18H    basis set group =>   4
Atom  19H    basis set group =>   4
Atom  20H    basis set group =>   4
Atom  21H    basis set group =>   4
Atom  22H    basis set group =>   4
Atom  23H    basis set group =>   4
Atom  24H    basis set group =>   4
Atom  25H    basis set group =>   4
Atom  26H    basis set group =>   4
Atom  27H    basis set group =>   4
Atom  28H    basis set group =>   4
----------------------------------
AUXILIARY/JK BASIS SET INFORMATION
----------------------------------
There are 4 groups of distinct atoms

 Group   1 Type C   : 16s13p12d2f contracted to 16s13p12d2f pattern {1111111111111111/1111111111111/111111111111/11}
 Group   2 Type N   : 16s13p12d3f contracted to 16s13p12d3f pattern {1111111111111111/1111111111111/111111111111/111}
 Group   3 Type O   : 16s13p12d3f contracted to 16s13p12d3f pattern {1111111111111111/1111111111111/111111111111/111}
 Group   4 Type H   : 10s2p1d contracted to 10s2p1d pattern {1111111111/11/1}

Atom   0C    basis set group =>   1
Atom   1N    basis set group =>   2
Atom   2C    basis set group =>   1
Atom   3C    basis set group =>   1
Atom   4C    basis set group =>   1
Atom   5C    basis set group =>   1
Atom   6C    basis set group =>   1
Atom   7O    basis set group =>   3
Atom   8C    basis set group =>   1
Atom   9C    basis set group =>   1
Atom  10C    basis set group =>   1
Atom  11C    basis set group =>   1
Atom  12C    basis set group =>   1
Atom  13C    basis set group =>   1
Atom  14H    basis set group =>   4
Atom  15H    basis set group =>   4
Atom  16H    basis set group =>   4
Atom  17H    basis set group =>   4
Atom  18H    basis set group =>   4
Atom  19H    basis set group =>   4
Atom  20H    basis set group =>   4
Atom  21H    basis set group =>   4
Atom  22H    basis set group =>   4
Atom  23H    basis set group =>   4
Atom  24H    basis set group =>   4
Atom  25H    basis set group =>   4
Atom  26H    basis set group =>   4
Atom  27H    basis set group =>   4
Atom  28H    basis set group =>   4
---------------------------------
AUXILIARY/X BASIS SET INFORMATION
---------------------------------
There are 4 groups of distinct atoms

 Group   1 Type C   : 16s13p12d2f contracted to 16s13p12d2f pattern {1111111111111111/1111111111111/111111111111/11}
 Group   2 Type N   : 16s13p12d3f contracted to 16s13p12d3f pattern {1111111111111111/1111111111111/111111111111/111}
 Group   3 Type O   : 16s13p12d3f contracted to 16s13p12d3f pattern {1111111111111111/1111111111111/111111111111/111}
 Group   4 Type H   : 10s2p1d contracted to 10s2p1d pattern {1111111111/11/1}

Atom   0C    basis set group =>   1
Atom   1N    basis set group =>   2
Atom   2C    basis set group =>   1
Atom   3C    basis set group =>   1
Atom   4C    basis set group =>   1
Atom   5C    basis set group =>   1
Atom   6C    basis set group =>   1
Atom   7O    basis set group =>   3
Atom   8C    basis set group =>   1
Atom   9C    basis set group =>   1
Atom  10C    basis set group =>   1
Atom  11C    basis set group =>   1
Atom  12C    basis set group =>   1
Atom  13C    basis set group =>   1
Atom  14H    basis set group =>   4
Atom  15H    basis set group =>   4
Atom  16H    basis set group =>   4
Atom  17H    basis set group =>   4
Atom  18H    basis set group =>   4
Atom  19H    basis set group =>   4
Atom  20H    basis set group =>   4
Atom  21H    basis set group =>   4
Atom  22H    basis set group =>   4
Atom  23H    basis set group =>   4
Atom  24H    basis set group =>   4
Atom  25H    basis set group =>   4
Atom  26H    basis set group =>   4
Atom  27H    basis set group =>   4
Atom  28H    basis set group =>   4

Checking for AutoStart:
The File: hat_gs_freq.gbw exists
Trying to determine its content:
     ... Fine, the file contains calculation information
     ... Fine, the calculation information was read
     ... Fine, the file contains a basis set
     ... Fine, the basis set was read
     ... Fine, the file contains a geometry
     ... Fine, the geometry was read
     ... The file does not contain orbitals - skipping AutoStart


           ************************************************************
           *        Program running with 16 parallel MPI-processes    *
           *              working on a common directory               *
           ************************************************************
------------------------------------------------------------------------------
                             ORCA STARTUP CALCULATIONS
                           -- RI-GTO INTEGRALS CHOSEN --
------------------------------------------------------------------------------
------------------------------------------------------------------------------
                   ___                                                        
                  /   \      - P O W E R E D   B Y -                         
                 /     \                                                     
                 |  |  |   _    _      __       _____    __    __             
                 |  |  |  | |  | |    /  \     |  _  \  |  |  /  |          
                  \  \/   | |  | |   /    \    | | | |  |  | /  /          
                 / \  \   | |__| |  /  /\  \   | |_| |  |  |/  /          
                |  |  |   |  __  | /  /__\  \  |    /   |      \           
                |  |  |   | |  | | |   __   |  |    \   |  |\   \          
                \     /   | |  | | |  |  |  |  | |\  \  |  | \   \       
                 \___/    |_|  |_| |__|  |__|  |_| \__\ |__|  \__/        
                                                                              
                      - O R C A' S   B I G   F R I E N D -                    
                                      &                                       
                       - I N T E G R A L  F E E D E R -                       
                                                                              
 v1 FN, 2020, v2 2021, v3 2022-2024                                           
------------------------------------------------------------------------------


----------------------
SHARK INTEGRAL PACKAGE
----------------------

Number of atoms                             ...     29
Number of basis functions                   ...    327
Number of shells                            ...    157
Maximum angular momentum                    ...      2
Integral batch strategy                     ... SHARK/LIBINT Hybrid
RI-J (if used) integral strategy            ... SPLIT-RIJ (Revised 2003 algorithm where possible)
Printlevel                                  ...      1
Contraction scheme used                     ... SEGMENTED contraction
Prescreening option                         ... SCHWARTZ
   Thresh                                   ... 1.000e-10
   Tcut                                     ... 1.000e-11
   Tpresel                                  ... 1.000e-11 
Coulomb Range Separation                    ... NOT USED
Exchange Range Separation                   ... NOT USED
Multipole approximations                    ... NOT USED
Finite Nucleus Model                        ... NOT USED
CABS basis                                  ... NOT available
Auxiliary Coulomb fitting basis             ... AVAILABLE
   # of basis functions in Aux-J            ...   2135
   # of shells in Aux-J                     ...    799
   Maximum angular momentum in Aux-J        ...      3
Auxiliary J/K fitting basis                 ... AVAILABLE
   # of basis functions in Aux-JK           ...   2135
   # of shells in Aux-JK                    ...    799
   Maximum angular momentum in Aux-JK       ...      3
Auxiliary Correlation fitting basis         ... AVAILABLE
   # of basis functions in Aux-C            ...   2135
   # of shells in Aux-C                     ...    799
   Maximum angular momentum in Aux-C        ...      3
Auxiliary 'external' fitting basis          ... NOT available

Checking pre-screening integrals            ... done (  0.0 sec) Dimension = 157
   => SHARK Basis and OBASIS are compatible. Storing Pre-screening
Shell pair information
Shell pair cut-off parameter TPreSel        ...   1.0e-11
Total number of shell pairs                 ...     12403
Shell pairs after pre-screening             ...     10722
Total number of primitive shell pairs       ...     49480
Primitive shell pairs kept                  ...     28614
          la=0 lb=0:   3237 shell pairs
          la=1 lb=0:   4300 shell pairs
          la=1 lb=1:   1467 shell pairs
          la=2 lb=0:    977 shell pairs
          la=2 lb=1:    663 shell pairs
          la=2 lb=2:     78 shell pairs

Checking whether 4 symmetric matrices of dimension 327 fit in memory
:Max Core in MB      =   6000.00
 MB in use           =     17.92
 MB left             =   5982.08
 MB needed           =      1.64
 Data fit in memory  = YES
Calculating RI/J V-Matrix + Cholesky decomp.... done (  0.1 sec)
Calculating RI/JK V-Matrix + Cholesky decomp.... done (  0.1 sec)
Calculating RI/C V-Matrix + Cholesky decomp.... done (  0.1 sec)
Calculating Nuclear repulsion               ... done (  0.0 sec) ENN=    871.001301362011 Eh

Diagonalization of the overlap matrix:
Smallest eigenvalue                        ... 5.999e-07
Time for diagonalization                   ...    0.007 sec
Threshold for overlap eigenvalues          ... 1.000e-07
Number of eigenvalues below threshold      ... 0

IMPORTANT:
Smallest eigenvalue of S below the DiffSThresh (1.000e-06) while
Thresh>1e-12 and/or TCut>1e-13! In order to avoid SCF convergence issues,
Thresh will be set to at least 1e-12 and TCut to at least 1e-13.
This can be turned off by adding %SCF DiffSThresh -1 END to the input.

Time for construction of square roots      ...    0.004 sec
Total time needed                          ...    0.012 sec

-------------------
DFT GRID GENERATION
-------------------

General Integration Accuracy     IntAcc      ... 4.388
Radial Grid Type                 RadialGrid  ... OptM3 with GC (2021)
Angular Grid (max. ang.)         AngularGrid ... 4 (Lebedev-302)
Angular grid pruning method      GridPruning ... 4 (adaptive)
Weight generation scheme         WeightScheme... mBecke (2022)
Basis function cutoff            BFCut       ... 1.0000e-10
Integration weight cutoff        WCut        ... 1.0000e-14
Partially contracted basis set               ... off
Rotationally invariant grid construction     ... off
Angular grids for H and He will be reduced by one unit
Diffuse basis detected: some atoms will have their outermost
                        angular grid increased by 1.

Total number of grid points                  ...   134887
Total number of batches                      ...     2124
Average number of points per batch           ...       63
Average number of grid points per atom       ...     4651

--------------------
COSX GRID GENERATION
--------------------

GRIDX 1
-------
General Integration Accuracy     IntAcc      ... 3.816
Radial Grid Type                 RadialGrid  ... OptM3 with GC (2021)
Angular Grid (max. ang.)         AngularGrid ... 1 (Lebedev-50)
Angular grid pruning method      GridPruning ... 4 (adaptive)
Weight generation scheme         WeightScheme... mBecke (2022)
Basis function cutoff            BFCut       ... 1.0000e-10
Integration weight cutoff        WCut        ... 1.0000e-14
Partially contracted basis set               ... on
Rotationally invariant grid construction     ... off
Angular grids for H and He will be reduced by one unit
Diffuse basis detected: some atoms will have their outermost
                        angular grid increased by 1.

Total number of grid points                  ...    17194
Total number of batches                      ...      151
Average number of points per batch           ...      113
Average number of grid points per atom       ...      593
UseSFitting                                  ... on

GRIDX 2
-------
General Integration Accuracy     IntAcc      ... 4.020
Radial Grid Type                 RadialGrid  ... OptM3 with GC (2021)
Angular Grid (max. ang.)         AngularGrid ... 2 (Lebedev-110)
Angular grid pruning method      GridPruning ... 4 (adaptive)
Weight generation scheme         WeightScheme... mBecke (2022)
Basis function cutoff            BFCut       ... 1.0000e-10
Integration weight cutoff        WCut        ... 1.0000e-14
Partially contracted basis set               ... on
Rotationally invariant grid construction     ... off
Angular grids for H and He will be reduced by one unit
Diffuse basis detected: some atoms will have their outermost
                        angular grid increased by 1.

Total number of grid points                  ...    39478
Total number of batches                      ...      322
Average number of points per batch           ...      122
Average number of grid points per atom       ...     1361
UseSFitting                                  ... on

GRIDX 3
-------
General Integration Accuracy     IntAcc      ... 4.338
Radial Grid Type                 RadialGrid  ... OptM3 with GC (2021)
Angular Grid (max. ang.)         AngularGrid ... 3 (Lebedev-194)
Angular grid pruning method      GridPruning ... 4 (adaptive)
Weight generation scheme         WeightScheme... mBecke (2022)
Basis function cutoff            BFCut       ... 1.0000e-10
Integration weight cutoff        WCut        ... 1.0000e-14
Partially contracted basis set               ... on
Rotationally invariant grid construction     ... off
Angular grids for H and He will be reduced by one unit
Diffuse basis detected: some atoms will have their outermost
                        angular grid increased by 1.

Total number of grid points                  ...    85083
Total number of batches                      ...      679
Average number of points per batch           ...      125
Average number of grid points per atom       ...     2934
UseSFitting                                  ... on
Grids setup in   0.8 sec
Initializing property integral containers    ... done (  0.0 sec)

SHARK setup successfully completed in   1.3 seconds

Maximum memory used throughout the entire STARTUP-calculation: 41.5 MB


           ************************************************************
           *        Program running with 16 parallel MPI-processes    *
           *              working on a common directory               *
           ************************************************************
-------------------------------------------------------------------------------
                                 ORCA GUESS
                   Start orbitals & Density for SCF / CASSCF
-------------------------------------------------------------------------------

------------
SCF SETTINGS
------------
Hamiltonian:
 Density Functional     Method          .... DFT(GTOs)
 Exchange Functional    Exchange        .... M062X
 Correlation Functional Correlation     .... M062X
 Gradients option       PostSCFGGA      .... off
 Hybrid DFT is turned on
   Fraction HF Exchange ScalHFX         ....  0.540000
   Scaling of DF-GGA-X  ScalDFX         ....  0.460000
   Scaling of DF-GGA-C  ScalDFC         ....  1.000000
   Scaling of DF-LDA-C  ScalLDAC        ....  1.000000
   Perturbative correction              ....  0.000000
 RI-approximation to the Coulomb term is turned on
   Number of AuxJ basis functions       .... 2135
   RIJ-COSX (HFX calculated with COS-X)).... on


General Settings:
 Integral files         IntName         .... hat_gs_freq
 Hartree-Fock type      HFTyp           .... UHF
 Total Charge           Charge          ....    0
 Multiplicity           Mult            ....    3
 Number of Electrons    NEL             ....  102
 Basis Dimension        Dim             ....  327
 Nuclear Repulsion      ENuc            ....    871.0013013620 Eh

Convergence Acceleration:
 AO-DIIS                CNVDIIS         .... on
   Start iteration      DIISMaxIt       ....    12
   Startup error        DIISStart       ....  0.200000
   # of expansion vecs  DIISMaxEq       ....     5
   Bias factor          DIISBfac        ....   1.050
   Max. coefficient     DIISMaxC        ....  10.000
 MO-DIIS                CNVKDIIS        .... off
 Trust-Rad. Augm. Hess. CNVTRAH         .... auto
   Auto Start mean grad. ratio tolernc. ....  1.125000
   Auto Start start iteration           ....    50
   Auto Start num. interpolation iter.  ....    10
   Max. Number of Micro iterations      ....    24
   Max. Number of Macro iterations      .... Maxiter - #DIIS iter
   Number of Davidson start vectors     ....     2
   Converg. threshold    (grad. norm)   ....   5.000e-05
   Grad. Scal. Fac. for Micro threshold ....   0.100
   Minimum threshold for Micro iter.    ....   1.000e-02
   NR start threshold (gradient norm)   ....   1.000e-04
   Initial trust radius                 ....   0.400
   Minimum AH scaling param. (alpha)    ....   1.000
   Maximum AH scaling param. (alpha)    .... 1000.000
   Quad. conv. algorithm                .... NR
   White noise on init. David. guess    .... on
   Maximum white noise                  ....   0.010
   Pseudo random numbers                .... off
   Inactive MOs                         .... canonical
   Orbital update algorithm             .... Taylor
   Preconditioner                       .... Diag
   Full preconditioner red. dimension   ....   250
 SOSCF                 CNVSOSCF           .... on
   Start iteration     SOSCFMaxIt         ....   150
   Startup grad/error  SOSCFStart         ....  0.003300
   Hessian update      SOSCFHessUp        .... L-BFGS
   Autom. constraints  SOSCFAutoConstrain .... off
 Level Shifting         CNVShift        .... on
   Level shift para.    LevelShift      ....    0.2500
   Turn off err/grad.   ShiftErr        ....    0.0010
 Zerner damping         CNVZerner       .... off
 Static damping         CNVDamp         .... on
   Fraction old density DampFac         ....    0.7000
   Max. Damping (<1)    DampMax         ....    0.9800
   Min. Damping (>=0)   DampMin         ....    0.0000
   Turn off err/grad.   DampErr         ....    0.1000

SCF Procedure:
 Maximum # iterations   MaxIter         ....   125
 SCF integral mode      SCFMode         .... Direct
   Integral package                     .... SHARK and LIBINT hybrid scheme
 Reset frequency        DirectResetFreq ....    20
 Integral Threshold     Thresh          ....  1.000e-12 Eh
 Primitive CutOff       TCut            ....  1.000e-13 Eh

Convergence Tolerance:
 Convergence Check Mode ConvCheckMode   .... Total+1el-Energy
 Convergence forced     ConvForced      .... 1
 Energy Change          TolE            ....  1.000e-06 Eh
 1-El. energy change                    ....  1.000e-03 Eh
 Orbital Gradient       TolG            ....  5.000e-05
 Orbital Rotation angle TolX            ....  5.000e-05
 DIIS Error             TolErr          ....  1.000e-06


The Flip-Spin feature is operative for generating broken symmetry solutions
List of atoms to flip:
 C 10
We will now do a high-spin calculation with                 Ms=  1.0
and then try to converge to the broken symmetry state with Ms=  0.0

------------------------------
INITIAL GUESS: MODEL POTENTIAL
------------------------------
Loading Hartree-Fock densities                     ... done
Calculating cut-offs                               ... done
Initializing the effective Hamiltonian             ... done
Setting up the integral package (SHARK)            ... done
Starting the Coulomb interaction                   ... done (   0.0 sec)
Making the grid                                    ... done (   0.1 sec)
Mapping shells                                     ... done
Starting the XC term evaluation                    ... done (   0.0 sec)
  promolecular density results
     # of electrons  =    101.995168599
     EX              =    -80.480171803
     EC              =     -3.396350896
     EX+EC           =    -83.876522699
Transforming the Hamiltonian                       ... done (   0.0 sec)
Diagonalizing the Hamiltonian                      ... done (   0.0 sec)
Back transforming the eigenvectors                 ... done (   0.0 sec)
Now organizing SCF variables                       ... done
                      ------------------
                      INITIAL GUESS DONE (   0.2 sec)
                      ------------------
             **** ENERGY FILE WAS UPDATED (hat_gs_freq.en.tmp) ****
Finished Guess after   0.5 sec
Maximum memory used throughout the entire GUESS-calculation: 21.4 MB


           ************************************************************
           *        Program running with 16 parallel MPI-processes    *
           *              working on a common directory               *
           ************************************************************

-------------------------------------------------------------------------------------------
                                      ORCA LEAN-SCF
                              memory conserving SCF solver
-------------------------------------------------------------------------------------------

--------------------
CPCM SOLVATION MODEL
--------------------
CPCM parameters:
  Epsilon                                         ...       8.9300
  Refrac                                          ...       1.4242
  Rsolv                                           ...       1.3000
  Surface type                                    ... GAUSSIAN VDW
  Discretization scheme                           ... Constant charge density
    Threshold for H atoms                         ...       5.0000 (charges/Ang^2)
    Threshold for non-H atoms                     ...       5.0000 (charges/Ang^2)
  Epsilon function type                           ...         CPCM
Solvent:                                          ... DICHLOROMETHANE
SMD-CDS solvent descriptors:
  Soln                                            ...       1.4242
  Soln25                                          ...       1.4212
  Sola                                            ...       0.1000
  Solb                                            ...       0.0500
  Solg                                            ...      39.1500
  Solc                                            ...       0.0000
  Solh                                            ...       0.6670
Radii:
  Scheme                                          ... Element-dependent radii
  Radius for C  used is    3.4960 Bohr (=   1.8500 Ang.)
  Radius for N  used is    3.5716 Bohr (=   1.8900 Ang.)
  Radius for O  used is    3.9949 Bohr (=   2.1140 Ang.)
  Radius for H  used is    2.2677 Bohr (=   1.2000 Ang.)
Calculating surface                               ...        done! (  0.0s)
Cavity surface points                             ...         2183
Cavity Volume                                     ...    1457.0661
Cavity Surface-area                               ...     835.3177
Calculating surface distance matrix               ...        done! (  0.0s)
Performing Cholesky decomposition & store         ...        done! (  0.1s)
Overall time for CPCM initialization              ...                 0.1s

                     ******************************************
                               F L I P    S P I N
                           -----------------------------
                            High-Spin SCF calculation
                                S(HS) =   1.0
                      ******************************************
 ----------------------------------------D-I-I-S--------------------------------------------
Iteration    Energy (Eh)           Delta-E    RMSDP     MaxDP     DIISErr   Damp  Time(sec)
-------------------------------------------------------------------------------------------
               ***  Starting incremental Fock matrix formation  ***
    1    -595.6437247964324797     0.00e+00  2.99e-02  8.73e-01  8.73e-02  0.700   1.5
    2    -595.7733586470158116    -1.30e-01  2.02e-02  3.19e-01  4.88e-02  0.700   1.1
                               ***Turning on AO-DIIS***
    3    -595.8396413611621938    -6.63e-02  1.44e-02  2.68e-01  2.38e-02  0.700   1.1
    4    -595.8788394991440782    -3.92e-02  3.47e-02  6.14e-01  1.49e-02  0.000   1.0
    5    -595.9635334962713387    -8.47e-02  8.56e-03  3.05e-01  3.53e-03  0.000   1.1
                              *** Initializing SOSCF ***
---------------------------------------S-O-S-C-F--------------------------------------
Iteration    Energy (Eh)           Delta-E    RMSDP     MaxDP     MaxGrad    Time(sec)
--------------------------------------------------------------------------------------
    6    -595.9641240957960235    -5.91e-04  4.12e-03  1.37e-01  2.12e-03     1.0
               *** Restarting incremental Fock matrix formation ***
    7    -595.9645639139682771    -4.40e-04  3.24e-03  6.88e-02  2.88e-03     1.6
    8    -595.9647550870711257    -1.91e-04  4.48e-03  9.11e-02  1.22e-03     1.4
    9    -595.9648244381330642    -6.94e-05  1.89e-03  3.92e-02  9.88e-04     1.4
   10    -595.9648556574200029    -3.12e-05  4.50e-04  1.23e-02  1.74e-04     1.3
   11    -595.9648563328689761    -6.75e-07  1.94e-04  6.75e-03  1.32e-04     1.2
                 **** Energy Check signals convergence ****

               *****************************************************
               *                     SUCCESS                       *
               *           SCF CONVERGED AFTER  11 CYCLES          *
               *****************************************************

Recomputing exchange energy using gridx3       ... done (    1.605 sec)
Old exchange energy                            :    -44.495207138 Eh
New exchange energy                            :    -44.495332849 Eh
Exchange energy change after final integration :     -0.000125711 Eh
Total energy after final integration           :   -595.964982648 Eh

SMD CDS free energy correction energy :                -4.15563     Kcal/mol
Total Energy after SMD CDS correction =              -595.971605065 Eh
             **** ENERGY FILE WAS UPDATED (hat_gs_freq.en.tmp) ****

----------------
TOTAL SCF ENERGY
----------------

Total Energy       :       -595.97160506498255 Eh          -16217.21184 eV

Components:
Nuclear Repulsion  :        871.00130136201096 Eh           23701.15035 eV
Electronic Energy  :      -1466.94664565568087 Eh          -39917.64760 eV
One Electron Energy:      -2533.48728022506293 Eh          -68939.69372 eV
Two Electron Energy:       1066.54063456938206 Eh           29022.04612 eV
CPCM Dielectric    :         -0.01951264370070 Eh              -0.53097 eV
SMD CDS (Gcds)     :         -0.00662241657025 Eh              -0.18021 eV

Virial components:
Potential Energy   :      -1187.98307825425286 Eh          -32326.66302 eV
Kinetic Energy     :        592.01147318927030 Eh           16109.45117 eV
Virial Ratio       :          2.00668928231133

DFT components:
N(Alpha)           :       52.000027311831 electrons
N(Beta)            :       49.999988443097 electrons
N(Total)           :      102.000015754928 electrons
E(XC)              :      -41.482380836944 Eh       

CPCM Solvation Model Properties:
Surface-charge          :         -0.05745300555301
Corrected charge        :         -0.00000000000000
Outlying charge corr.   :          0.00018912050622 Eh               0.00515 eV
Free-energy (cav+disp)  :         -0.00662241657025 Eh              -0.18021 eV

---------------
SCF CONVERGENCE
---------------

  Last Energy change         ...    6.7545e-07  Tolerance :   1.0000e-06
  Last MAX-Density change    ...    6.7473e-03  Tolerance :   1.0000e-05
  Last RMS-Density change    ...    1.9434e-04  Tolerance :   1.0000e-06
  Last DIIS Error            ...    2.1171e-03  Tolerance :   1.0000e-06
  Last Orbital Gradient      ...    1.3231e-04  Tolerance :   5.0000e-05
  Last Orbital Rotation      ...    2.8085e-04  Tolerance :   5.0000e-05


----------------------
UHF SPIN CONTAMINATION
----------------------

Warning: in a DFT calculation there is little theoretical justification to 
         calculate <S**2> as in Hartree-Fock theory. We will do it anyways
         but you should keep in mind that the values have only limited relevance

Expectation value of <S**2>     :     2.022544
Ideal value S*(S+1) for S=1.0   :     2.000000
Deviation                       :     0.022544


                    ********************************
                    * MULLIKEN POPULATION ANALYSIS *
                    ********************************

--------------------------------------------
MULLIKEN ATOMIC CHARGES AND SPIN POPULATIONS
--------------------------------------------
   0 C :   -0.432610   -0.077263
   1 N :   -0.281278    0.198283
   2 C :   -0.363810   -0.081646
   3 C :    0.702930    0.256765
   4 C :    1.144876   -0.137789
   5 C :   -1.389625    0.594157
   6 C :   -0.329712   -0.038346
   7 O :   -0.330465    0.092036
   8 C :   -0.069091   -0.014172
   9 C :   -0.162349   -0.036867
  10 C :    0.150604    1.002235
  11 C :   -0.611526   -0.077024
  12 C :   -0.564957   -0.098941
  13 C :   -0.247503    0.196037
  14 H :    0.174914    0.001945
  15 H :    0.174464    0.002270
  16 H :    0.195723   -0.009117
  17 H :    0.206571    0.012289
  18 H :    0.220119    0.032947
  19 H :    0.180801    0.006304
  20 H :    0.177440    0.063898
  21 H :    0.173614    0.013913
  22 H :    0.170571    0.011489
  23 H :    0.181564    0.017370
  24 H :    0.171225    0.008243
  25 H :    0.188356    0.062104
  26 H :    0.189257   -0.008260
  27 H :    0.190135    0.001620
  28 H :    0.189762    0.005519
Sum of atomic charges         :   -0.0000000
Sum of atomic spin populations:    2.0000000

-----------------------------------------------------
MULLIKEN REDUCED ORBITAL CHARGES AND SPIN POPULATIONS
-----------------------------------------------------
CHARGE
  0 C s       :     3.560154  s :     3.560154
      pz      :     0.903017  p :     2.820336
      px      :     0.973625
      py      :     0.943694
      dz2     :     0.006488  d :     0.052120
      dxz     :     0.010670
      dyz     :     0.007115
      dx2y2   :     0.014862
      dxy     :     0.012985

  1 N s       :     3.668168  s :     3.668168
      pz      :     1.137588  p :     3.575923
      px      :     1.399664
      py      :     1.038670
      dz2     :     0.005639  d :     0.037187
      dxz     :     0.008359
      dyz     :     0.004843
      dx2y2   :     0.006951
      dxy     :     0.011396

  2 C s       :     3.480314  s :     3.480314
      pz      :     0.943953  p :     2.831276
      px      :     1.043547
      py      :     0.843776
      dz2     :     0.004777  d :     0.052220
      dxz     :     0.009159
      dyz     :     0.009097
      dx2y2   :     0.013181
      dxy     :     0.016007

  3 C s       :     2.328487  s :     2.328487
      pz      :     1.022320  p :     2.937759
      px      :     0.900701
      py      :     1.014738
      dz2     :     0.003585  d :     0.030824
      dxz     :     0.006260
      dyz     :     0.004239
      dx2y2   :     0.008183
      dxy     :     0.008557

  4 C s       :     1.515804  s :     1.515804
      pz      :     1.036453  p :     3.298954
      px      :     1.174031
      py      :     1.088470
      dz2     :     0.005526  d :     0.040366
      dxz     :     0.008691
      dyz     :     0.005689
      dx2y2   :     0.010684
      dxy     :     0.009776

  5 C s       :     4.168420  s :     4.168420
      pz      :     0.955431  p :     3.154413
      px      :     1.280413
      py      :     0.918570
      dz2     :     0.008491  d :     0.066793
      dxz     :     0.011017
      dyz     :     0.011650
      dx2y2   :     0.018938
      dxy     :     0.016697

  6 C s       :     3.331546  s :     3.331546
      pz      :     1.058588  p :     2.963674
      px      :     0.842430
      py      :     1.062656
      dz2     :     0.010262  d :     0.034492
      dxz     :     0.006480
      dyz     :     0.003591
      dx2y2   :     0.007326
      dxy     :     0.006834

  7 O s       :     3.805283  s :     3.805283
      pz      :     1.674128  p :     4.493467
      px      :     1.345020
      py      :     1.474318
      dz2     :     0.004371  d :     0.031715
      dxz     :     0.005500
      dyz     :     0.006579
      dx2y2   :     0.010051
      dxy     :     0.005214

  8 C s       :     3.251992  s :     3.251992
      pz      :     1.116057  p :     2.761082
      px      :     0.633283
      py      :     1.011742
      dz2     :     0.008067  d :     0.056016
      dxz     :     0.011495
      dyz     :     0.011066
      dx2y2   :     0.015816
      dxy     :     0.009572

  9 C s       :     3.180076  s :     3.180076
      pz      :     1.025453  p :     2.941820
      px      :     1.013483
      py      :     0.902884
      dz2     :     0.006445  d :     0.040453
      dxz     :     0.011413
      dyz     :     0.007031
      dx2y2   :     0.009141
      dxy     :     0.006423

 10 C s       :     3.020789  s :     3.020789
      pz      :     0.911131  p :     2.792701
      px      :     0.925779
      py      :     0.955791
      dz2     :     0.007983  d :     0.035906
      dxz     :     0.009355
      dyz     :     0.007224
      dx2y2   :     0.004967
      dxy     :     0.006377

 11 C s       :     3.451013  s :     3.451013
      pz      :     1.101737  p :     3.129684
      px      :     1.028133
      py      :     0.999814
      dz2     :     0.004447  d :     0.030829
      dxz     :     0.008884
      dyz     :     0.004177
      dx2y2   :     0.005388
      dxy     :     0.007934

 12 C s       :     3.423072  s :     3.423072
      pz      :     0.987083  p :     3.111205
      px      :     1.028163
      py      :     1.095960
      dz2     :     0.006945  d :     0.030681
      dxz     :     0.006984
      dyz     :     0.005012
      dx2y2   :     0.004409
      dxy     :     0.007330

 13 C s       :     3.116355  s :     3.116355
      pz      :     1.036108  p :     3.100105
      px      :     0.925260
      py      :     1.138738
      dz2     :     0.003017  d :     0.031043
      dxz     :     0.006200
      dyz     :     0.004881
      dx2y2   :     0.008144
      dxy     :     0.008800

 14 H s       :     0.814377  s :     0.814377
      pz      :     0.002540  p :     0.010709
      px      :     0.002231
      py      :     0.005938

 15 H s       :     0.814839  s :     0.814839
      pz      :     0.003459  p :     0.010696
      px      :     0.003777
      py      :     0.003460

 16 H s       :     0.792590  s :     0.792590
      pz      :     0.003076  p :     0.011687
      px      :     0.002286
      py      :     0.006325

 17 H s       :     0.782933  s :     0.782933
      pz      :     0.001840  p :     0.010496
      px      :     0.001673
      py      :     0.006983

 18 H s       :     0.769488  s :     0.769488
      pz      :     0.006693  p :     0.010393
      px      :     0.001797
      py      :     0.001902

 19 H s       :     0.808904  s :     0.808904
      pz      :     0.004409  p :     0.010296
      px      :     0.004240
      py      :     0.001646

 20 H s       :     0.812247  s :     0.812247
      pz      :     0.002298  p :     0.010312
      px      :     0.003080
      py      :     0.004934

 21 H s       :     0.816150  s :     0.816150
      pz      :     0.005148  p :     0.010236
      px      :     0.002939
      py      :     0.002149

 22 H s       :     0.819203  s :     0.819203
      pz      :     0.004332  p :     0.010226
      px      :     0.003942
      py      :     0.001952

 23 H s       :     0.808055  s :     0.808055
      pz      :     0.002024  p :     0.010380
      px      :     0.002381
      py      :     0.005975

 24 H s       :     0.818509  s :     0.818509
      pz      :     0.004631  p :     0.010266
      px      :     0.002945
      py      :     0.002689

 25 H s       :     0.801311  s :     0.801311
      pz      :     0.001937  p :     0.010333
      px      :     0.005195
      py      :     0.003201

 26 H s       :     0.799111  s :     0.799111
      pz      :     0.003940  p :     0.011632
      px      :     0.003431
      py      :     0.004261

 27 H s       :     0.799824  s :     0.799824
      pz      :     0.005148  p :     0.010041
      px      :     0.002273
      py      :     0.002619

 28 H s       :     0.800406  s :     0.800406
      pz      :     0.005303  p :     0.009831
      px      :     0.000973
      py      :     0.003556


SPIN
  0 C s       :    -0.016715  s :    -0.016715
      pz      :    -0.033974  p :    -0.063841
      px      :    -0.014264
      py      :    -0.015602
      dz2     :     0.001131  d :     0.003293
      dxz     :     0.001424
      dyz     :    -0.000037
      dx2y2   :     0.000007
      dxy     :     0.000767

  1 N s       :     0.016361  s :     0.016361
      pz      :     0.125242  p :     0.182749
      px      :     0.010534
      py      :     0.046973
      dz2     :    -0.000317  d :    -0.000826
      dxz     :    -0.000250
      dyz     :    -0.000099
      dx2y2   :    -0.000108
      dxy     :    -0.000053

  2 C s       :    -0.015124  s :    -0.015124
      pz      :    -0.040221  p :    -0.069836
      px      :    -0.011499
      py      :    -0.018116
      dz2     :     0.000185  d :     0.003314
      dxz     :     0.001544
      dyz     :     0.000673
      dx2y2   :     0.000808
      dxy     :     0.000103

  3 C s       :     0.058428  s :     0.058428
      pz      :     0.114631  p :     0.198648
      px      :     0.033354
      py      :     0.050663
      dz2     :    -0.000139  d :    -0.000311
      dxz     :    -0.000025
      dyz     :     0.000002
      dx2y2   :    -0.000039
      dxy     :    -0.000110

  4 C s       :    -0.025124  s :    -0.025124
      pz      :    -0.062897  p :    -0.119293
      px      :    -0.032819
      py      :    -0.023578
      dz2     :     0.000443  d :     0.006628
      dxz     :     0.004161
      dyz     :     0.000378
      dx2y2   :     0.000658
      dxy     :     0.000987

  5 C s       :     0.045548  s :     0.045548
      pz      :     0.354011  p :     0.547383
      px      :     0.072473
      py      :     0.120898
      dz2     :    -0.000044  d :     0.001226
      dxz     :     0.000586
      dyz     :     0.000380
      dx2y2   :     0.000370
      dxy     :    -0.000066

  6 C s       :    -0.036411  s :    -0.036411
      pz      :    -0.022457  p :    -0.005701
      px      :     0.013762
      py      :     0.002994
      dz2     :     0.002908  d :     0.003765
      dxz     :     0.000498
      dyz     :     0.000013
      dx2y2   :     0.000011
      dxy     :     0.000336

  7 O s       :     0.000450  s :     0.000450
      pz      :     0.074592  p :     0.091093
      px      :     0.006543
      py      :     0.009958
      dz2     :    -0.000277  d :     0.000493
      dxz     :     0.000474
      dyz     :     0.000166
      dx2y2   :     0.000153
      dxy     :    -0.000023

  8 C s       :    -0.024785  s :    -0.024785
      pz      :     0.002236  p :     0.009838
      px      :     0.002405
      py      :     0.005198
      dz2     :     0.000277  d :     0.000774
      dxz     :     0.000347
      dyz     :    -0.000066
      dx2y2   :     0.000083
      dxy     :     0.000132

  9 C s       :     0.009047  s :     0.009047
      pz      :    -0.032192  p :    -0.051329
      px      :    -0.015183
      py      :    -0.003953
      dz2     :     0.000064  d :     0.005415
      dxz     :     0.002506
      dyz     :     0.000630
      dx2y2   :     0.002020
      dxy     :     0.000195

 10 C s       :     0.162214  s :     0.162214
      pz      :     0.097156  p :     0.842255
      px      :     0.383792
      py      :     0.361306
      dz2     :    -0.000330  d :    -0.002233
      dxz     :    -0.000807
      dyz     :    -0.000250
      dx2y2   :    -0.000009
      dxy     :    -0.000837

 11 C s       :    -0.018403  s :    -0.018403
      pz      :    -0.005916  p :    -0.064595
      px      :    -0.023185
      py      :    -0.035494
      dz2     :     0.000178  d :     0.005974
      dxz     :     0.000003
      dyz     :     0.001141
      dx2y2   :     0.003784
      dxy     :     0.000868

 12 C s       :    -0.033728  s :    -0.033728
      pz      :    -0.032470  p :    -0.071026
      px      :    -0.028783
      py      :    -0.009773
      dz2     :     0.001776  d :     0.005813
      dxz     :    -0.000035
      dyz     :     0.000704
      dx2y2   :     0.001042
      dxy     :     0.002326

 13 C s       :     0.024420  s :     0.024420
      pz      :     0.120733  p :     0.171821
      px      :     0.003223
      py      :     0.047865
      dz2     :    -0.000073  d :    -0.000204
      dxz     :     0.000048
      dyz     :    -0.000036
      dx2y2   :    -0.000098
      dxy     :    -0.000046

 14 H s       :     0.002059  s :     0.002059
      pz      :    -0.000090  p :    -0.000114
      px      :    -0.000020
      py      :    -0.000004

 15 H s       :     0.002394  s :     0.002394
      pz      :    -0.000091  p :    -0.000124
      px      :    -0.000008
      py      :    -0.000025

 16 H s       :    -0.009588  s :    -0.009588
      pz      :     0.000367  p :     0.000471
      px      :     0.000034
      py      :     0.000071

 17 H s       :     0.012301  s :     0.012301
      pz      :    -0.000051  p :    -0.000012
      px      :     0.000035
      py      :     0.000005

 18 H s       :     0.032830  s :     0.032830
      pz      :    -0.000022  p :     0.000118
      px      :     0.000124
      py      :     0.000015

 19 H s       :     0.006391  s :     0.006391
      pz      :    -0.000057  p :    -0.000087
      px      :    -0.000003
      py      :    -0.000027

 20 H s       :     0.063879  s :     0.063879
      pz      :    -0.000011  p :     0.000019
      px      :     0.000108
      py      :    -0.000078

 21 H s       :     0.013976  s :     0.013976
      pz      :     0.000047  p :    -0.000063
      px      :    -0.000011
      py      :    -0.000098

 22 H s       :     0.011553  s :     0.011553
      pz      :     0.000030  p :    -0.000064
      px      :    -0.000005
      py      :    -0.000089

 23 H s       :     0.017415  s :     0.017415
      pz      :    -0.000032  p :    -0.000045
      px      :    -0.000064
      py      :     0.000051

 24 H s       :     0.008303  s :     0.008303
      pz      :    -0.000020  p :    -0.000060
      px      :    -0.000054
      py      :     0.000014

 25 H s       :     0.062024  s :     0.062024
      pz      :     0.000076  p :     0.000080
      px      :     0.000009
      py      :    -0.000006

 26 H s       :    -0.008711  s :    -0.008711
      pz      :     0.000317  p :     0.000451
      px      :     0.000032
      py      :     0.000101

 27 H s       :     0.001606  s :     0.001606
      pz      :     0.000021  p :     0.000015
      px      :     0.000003
      py      :    -0.000009

 28 H s       :     0.005506  s :     0.005506
      pz      :    -0.000012  p :     0.000013
      px      :     0.000002
      py      :     0.000022



                     *******************************
                     * LOEWDIN POPULATION ANALYSIS *
                     *******************************

-------------------------------------------
LOEWDIN ATOMIC CHARGES AND SPIN POPULATIONS
-------------------------------------------
   0 C :   -0.061414   -0.037735
   1 N :   -0.328602    0.176378
   2 C :   -0.059177   -0.042605
   3 C :   -0.149858    0.152444
   4 C :   -0.105724   -0.021937
   5 C :    0.025059    0.476276
   6 C :   -0.215578    0.036752
   7 O :   -0.362265    0.128805
   8 C :   -0.017033    0.015082
   9 C :   -0.216894    0.000496
  10 C :   -0.172864    0.822241
  11 C :   -0.338029   -0.012714
  12 C :   -0.327043   -0.012367
  13 C :   -0.159914    0.144419
  14 H :    0.164398    0.000151
  15 H :    0.164436    0.000242
  16 H :    0.182318   -0.001914
  17 H :    0.184126    0.009044
  18 H :    0.179448    0.026381
  19 H :    0.173208    0.004954
  20 H :    0.154864    0.046364
  21 H :    0.145367    0.012477
  22 H :    0.147162    0.009805
  23 H :    0.161145    0.014933
  24 H :    0.145932    0.007369
  25 H :    0.166902    0.043192
  26 H :    0.177928   -0.001896
  27 H :    0.174302   -0.000324
  28 H :    0.167799    0.003687

----------------------------------------------------
LOEWDIN REDUCED ORBITAL CHARGES AND SPIN POPULATIONS
----------------------------------------------------
CHARGE
  0 C s       :     2.866707  s :     2.866707
      pz      :     0.960861  p :     3.069112
      px      :     1.073618
      py      :     1.034634
      dz2     :     0.013508  d :     0.125595
      dxz     :     0.026795
      dyz     :     0.014921
      dx2y2   :     0.038019
      dxy     :     0.032352

  1 N s       :     3.249745  s :     3.249745
      pz      :     1.214993  p :     3.994431
      px      :     1.548095
      py      :     1.231343
      dz2     :     0.011616  d :     0.084426
      dxz     :     0.014621
      dyz     :     0.015898
      dx2y2   :     0.017273
      dxy     :     0.025017

  2 C s       :     2.866943  s :     2.866943
      pz      :     0.963494  p :     3.066462
      px      :     1.083422
      py      :     1.019546
      dz2     :     0.011144  d :     0.125772
      dxz     :     0.020174
      dyz     :     0.019237
      dx2y2   :     0.033091
      dxy     :     0.042125

  3 C s       :     2.873344  s :     2.873344
      pz      :     1.034827  p :     3.197769
      px      :     1.086321
      py      :     1.076621
      dz2     :     0.008232  d :     0.078744
      dxz     :     0.015620
      dyz     :     0.009065
      dx2y2   :     0.022423
      dxy     :     0.023404

  4 C s       :     2.829866  s :     2.829866
      pz      :     1.021524  p :     3.168463
      px      :     1.068713
      py      :     1.078226
      dz2     :     0.012436  d :     0.107395
      dxz     :     0.021385
      dyz     :     0.014849
      dx2y2   :     0.030602
      dxy     :     0.028123

  5 C s       :     2.826088  s :     2.826088
      pz      :     0.969284  p :     2.986907
      px      :     1.084080
      py      :     0.933543
      dz2     :     0.018076  d :     0.161946
      dxz     :     0.025671
      dyz     :     0.028592
      dx2y2   :     0.045810
      dxy     :     0.043797

  6 C s       :     2.873880  s :     2.873880
      pz      :     1.113365  p :     3.263135
      px      :     1.044326
      py      :     1.105443
      dz2     :     0.021728  d :     0.078563
      dxz     :     0.016017
      dyz     :     0.007060
      dx2y2   :     0.016716
      dxy     :     0.017043

  7 O s       :     3.475655  s :     3.475655
      pz      :     1.740474  p :     4.813969
      px      :     1.486733
      py      :     1.586763
      dz2     :     0.008982  d :     0.072640
      dxz     :     0.012191
      dyz     :     0.012960
      dx2y2   :     0.023948
      dxy     :     0.014559

  8 C s       :     2.869847  s :     2.869847
      pz      :     1.116262  p :     3.025063
      px      :     0.815717
      py      :     1.093083
      dz2     :     0.016475  d :     0.122123
      dxz     :     0.025047
      dyz     :     0.022312
      dx2y2   :     0.037429
      dxy     :     0.020859

  9 C s       :     2.872913  s :     2.872913
      pz      :     1.109757  p :     3.246596
      px      :     1.071166
      py      :     1.065673
      dz2     :     0.014762  d :     0.097384
      dxz     :     0.026518
      dyz     :     0.017485
      dx2y2   :     0.022239
      dxy     :     0.016380

 10 C s       :     2.915470  s :     2.915470
      pz      :     1.083165  p :     3.169890
      px      :     1.038450
      py      :     1.048275
      dz2     :     0.020540  d :     0.087504
      dxz     :     0.023053
      dyz     :     0.018244
      dx2y2   :     0.010898
      dxy     :     0.014768

 11 C s       :     2.924879  s :     2.924879
      pz      :     1.136831  p :     3.346687
      px      :     1.112628
      py      :     1.097228
      dz2     :     0.009435  d :     0.066463
      dxz     :     0.017439
      dyz     :     0.008964
      dx2y2   :     0.012262
      dxy     :     0.018364

 12 C s       :     2.911382  s :     2.911382
      pz      :     1.108445  p :     3.349391
      px      :     1.109426
      py      :     1.131520
      dz2     :     0.015441  d :     0.066269
      dxz     :     0.016714
      dyz     :     0.010358
      dx2y2   :     0.009098
      dxy     :     0.014659

 13 C s       :     2.874435  s :     2.874435
      pz      :     1.040157  p :     3.206409
      px      :     1.102521
      py      :     1.063731
      dz2     :     0.006996  d :     0.079070
      dxz     :     0.014594
      dyz     :     0.010771
      dx2y2   :     0.022818
      dxy     :     0.023891

 14 H s       :     0.795980  s :     0.795980
      pz      :     0.008964  p :     0.039622
      px      :     0.008857
      py      :     0.021800

 15 H s       :     0.795982  s :     0.795982
      pz      :     0.012266  p :     0.039582
      px      :     0.014398
      py      :     0.012919

 16 H s       :     0.774760  s :     0.774760
      pz      :     0.010902  p :     0.042922
      px      :     0.008668
      py      :     0.023352

 17 H s       :     0.775178  s :     0.775178
      pz      :     0.007047  p :     0.040697
      px      :     0.006440
      py      :     0.027210

 18 H s       :     0.779962  s :     0.779962
      pz      :     0.026773  p :     0.040590
      px      :     0.006639
      py      :     0.007177

 19 H s       :     0.786892  s :     0.786892
[...]
 35:    958.10   0.000790    3.99  0.000257  (-0.013218  0.005912 -0.006897)
 36:    991.27   0.000953    4.82  0.000300  (-0.015235  0.008210 -0.000723)
 37:    991.97   0.000024    0.12  0.000008  ( 0.001820  0.002031  0.000315)
 38:    997.11   0.003631   18.35  0.001136  (-0.028461  0.017853  0.002753)
 39:   1007.39   0.025239  127.55  0.007818  ( 0.086689 -0.006363  0.016210)
 40:   1019.24   0.000005    0.02  0.000001  (-0.000188  0.001033 -0.000582)
 41:   1024.75   0.001543    7.80  0.000470  (-0.019197  0.003905  0.009280)
 42:   1056.62   0.000115    0.58  0.000034  ( 0.001996 -0.000017 -0.005474)
 43:   1070.67   0.002708   13.68  0.000789  ( 0.019939 -0.016072  0.011547)
 44:   1085.16   0.000963    4.86  0.000277  (-0.016222  0.003645  0.000610)
 45:   1096.60   0.032389  163.68  0.009217  ( 0.093238 -0.014240  0.017915)
 46:   1124.83   0.012684   64.10  0.003519  (-0.056619  0.017669 -0.001007)
 47:   1148.36   0.000634    3.21  0.000172  ( 0.001739  0.002397 -0.012792)
 48:   1202.56   0.005946   30.05  0.001543  ( 0.019283 -0.032565 -0.010517)
 49:   1230.23   0.027202  137.47  0.006900  ( 0.075053 -0.034706  0.007912)
 50:   1235.16   0.000355    1.79  0.000090  (-0.006300 -0.007045  0.000619)
 51:   1247.46   0.010172   51.40  0.002545  ( 0.024102 -0.042459  0.012686)
 52:   1262.15   0.029550  149.33  0.007306  (-0.076273  0.035674  0.014695)
 53:   1289.33   0.006732   34.02  0.001629  ( 0.012520 -0.032927 -0.019710)
 54:   1312.03   0.008459   42.75  0.002012  ( 0.032456 -0.029757 -0.008556)
 55:   1321.12   0.009025   45.61  0.002132  ( 0.033396 -0.031882 -0.000169)
 56:   1354.33   0.003916   19.79  0.000902  (-0.026086  0.014862 -0.000975)
 57:   1391.28   0.001510    7.63  0.000339  ( 0.012015 -0.007836  0.011530)
 58:   1403.91   0.001823    9.21  0.000405  (-0.016762 -0.011004 -0.001772)
 59:   1406.27   0.001851    9.35  0.000411  ( 0.014048 -0.006064  0.013287)
 60:   1410.76   0.008720   44.07  0.001929  ( 0.023290 -0.036467 -0.007529)
 61:   1451.24   0.009477   47.89  0.002038  ( 0.032611 -0.027137 -0.015424)
 62:   1460.23   0.000948    4.79  0.000203  ( 0.009718  0.009416  0.004415)
 63:   1462.40   0.000518    2.62  0.000111  (-0.007143  0.005699  0.005199)
 64:   1467.70   0.013093   66.17  0.002784  (-0.036024  0.027433  0.027085)
 65:   1469.17   0.006590   33.30  0.001400  (-0.007847 -0.032658 -0.016483)
 66:   1475.75   0.017407   87.97  0.003681  ( 0.051867 -0.029168  0.011827)
 67:   1477.62   0.001075    5.43  0.000227  ( 0.013155  0.006932 -0.002431)
 68:   1516.79   0.004131   20.88  0.000850  ( 0.014683 -0.025151 -0.001326)
 69:   1573.73   0.006894   34.84  0.001367  ( 0.012666  0.028129  0.020378)
 70:   1580.42   0.006452   32.61  0.001274  ( 0.028908 -0.020878  0.001545)
 71:   1652.89   0.066559  336.36  0.012566  (-0.110169  0.012616 -0.016430)
 72:   2975.29   0.008478   42.84  0.000889  ( 0.026288 -0.009005  0.010817)
 73:   2999.45   0.009049   45.73  0.000941  ( 0.003275  0.029725  0.006866)
 74:   3070.06   0.001852    9.36  0.000188  ( 0.003404  0.002066  0.013128)
 75:   3094.62   0.004537   22.93  0.000458  ( 0.005799 -0.008903 -0.018564)
 76:   3098.32   0.005482   27.70  0.000552  (-0.023216  0.000448  0.003598)
 77:   3107.63   0.009954   50.30  0.001000  (-0.016265  0.026074 -0.007425)
 78:   3128.96   0.006365   32.16  0.000635  ( 0.019517 -0.006868  0.014377)
 79:   3140.58   0.000707    3.58  0.000070  (-0.002470 -0.007937  0.001099)
 80:   3147.97   0.002329   11.77  0.000231  ( 0.013109  0.007495  0.001703)
 81:   3149.09   0.006699   33.85  0.000664  (-0.003574 -0.012080  0.022475)
 82:   3174.69   0.003316   16.76  0.000326  (-0.007022  0.001138  0.016592)
 83:   3208.50   0.007401   37.40  0.000720  ( 0.005371  0.022223  0.014039)
 84:   3211.25   0.002462   12.44  0.000239  (-0.014949  0.003715 -0.001405)
 85:   3241.41   0.000976    4.93  0.000094  ( 0.000390 -0.008067 -0.005363)
 86:   3251.55   0.000453    2.29  0.000043  (-0.004542 -0.003608 -0.003137)

* The epsilon (eps) is given for a Dirac delta lineshape.
** The dipole moment derivative (T) already includes vibrational overlap.

The first frequency considered to be a vibration is 6
The total number of vibrations considered is 81


--------------------------
THERMOCHEMISTRY AT 298.15K
--------------------------

Temperature         ...   298.15 K
Pressure            ...     1.00 atm
Total Mass          ...   189.26 AMU
Quasi RRHO          ...     True
Cut-Off Frequency   ...     1.00 cm^-1

Throughout the following assumptions are being made:
  (1) The electronic state is orbitally nondegenerate
  (2) There are no thermally accessible electronically excited states
  (3) Hindered rotations indicated by low frequency modes are not
      treated as such but are treated as vibrations and this may
      cause some error
  (4) All equations used are the standard statistical mechanics
      equations for an ideal gas
  (5) All vibrations are strictly harmonic

freq.      39.33  E(vib)   ...       0.54 
freq.      62.71  E(vib)   ...       0.51 
freq.      74.97  E(vib)   ...       0.49 
freq.     137.38  E(vib)   ...       0.42 
freq.     150.42  E(vib)   ...       0.40 
freq.     157.82  E(vib)   ...       0.40 
freq.     179.37  E(vib)   ...       0.37 
freq.     196.75  E(vib)   ...       0.36 
freq.     215.20  E(vib)   ...       0.34 
freq.     275.05  E(vib)   ...       0.28 
freq.     311.46  E(vib)   ...       0.25 
freq.     363.47  E(vib)   ...       0.22 
freq.     372.31  E(vib)   ...       0.21 
freq.     408.67  E(vib)   ...       0.19 
freq.     424.02  E(vib)   ...       0.18 
freq.     442.61  E(vib)   ...       0.17 
freq.     472.65  E(vib)   ...       0.15 
freq.     528.52  E(vib)   ...       0.13 
freq.     672.17  E(vib)   ...       0.08 
freq.     676.21  E(vib)   ...       0.08 
freq.     724.19  E(vib)   ...       0.06 
freq.     738.13  E(vib)   ...       0.06 
freq.     789.55  E(vib)   ...       0.05 
freq.     816.70  E(vib)   ...       0.05 
freq.     832.66  E(vib)   ...       0.04 
freq.     864.85  E(vib)   ...       0.04 
freq.     895.39  E(vib)   ...       0.03 
freq.     927.86  E(vib)   ...       0.03 
freq.     939.31  E(vib)   ...       0.03 
freq.     958.10  E(vib)   ...       0.03 
freq.     991.27  E(vib)   ...       0.02 
freq.     991.97  E(vib)   ...       0.02 
freq.     997.11  E(vib)   ...       0.02 
freq.    1007.39  E(vib)   ...       0.02 
freq.    1019.24  E(vib)   ...       0.02 
freq.    1024.75  E(vib)   ...       0.02 
freq.    1056.62  E(vib)   ...       0.02 
freq.    1070.67  E(vib)   ...       0.02 
freq.    1085.16  E(vib)   ...       0.02 
freq.    1096.60  E(vib)   ...       0.02 
freq.    1124.83  E(vib)   ...       0.01 
freq.    1148.36  E(vib)   ...       0.01 
freq.    1202.56  E(vib)   ...       0.01 
freq.    1230.23  E(vib)   ...       0.01 
freq.    1235.16  E(vib)   ...       0.01 
freq.    1247.46  E(vib)   ...       0.01 
freq.    1262.15  E(vib)   ...       0.01 
freq.    1289.33  E(vib)   ...       0.01 
freq.    1312.03  E(vib)   ...       0.01 
freq.    1321.12  E(vib)   ...       0.01 
freq.    1354.33  E(vib)   ...       0.01 
freq.    1391.28  E(vib)   ...       0.00 
freq.    1403.91  E(vib)   ...       0.00 
freq.    1406.27  E(vib)   ...       0.00 
freq.    1410.76  E(vib)   ...       0.00 
freq.    1451.24  E(vib)   ...       0.00 
freq.    1460.23  E(vib)   ...       0.00 
freq.    1462.40  E(vib)   ...       0.00 
freq.    1467.70  E(vib)   ...       0.00 
freq.    1469.17  E(vib)   ...       0.00 
freq.    1475.75  E(vib)   ...       0.00 
freq.    1477.62  E(vib)   ...       0.00 
freq.    1516.79  E(vib)   ...       0.00 
freq.    1573.73  E(vib)   ...       0.00 
freq.    1580.42  E(vib)   ...       0.00 
freq.    1652.89  E(vib)   ...       0.00 
freq.    2975.29  E(vib)   ...       0.00 
freq.    2999.45  E(vib)   ...       0.00 
freq.    3070.06  E(vib)   ...       0.00 
freq.    3094.62  E(vib)   ...       0.00 
freq.    3098.32  E(vib)   ...       0.00 
freq.    3107.63  E(vib)   ...       0.00 
freq.    3128.96  E(vib)   ...       0.00 
freq.    3140.58  E(vib)   ...       0.00 
freq.    3147.97  E(vib)   ...       0.00 
freq.    3149.09  E(vib)   ...       0.00 
freq.    3174.69  E(vib)   ...       0.00 
freq.    3208.50  E(vib)   ...       0.00 
freq.    3211.25  E(vib)   ...       0.00 
freq.    3241.41  E(vib)   ...       0.00 
freq.    3251.55  E(vib)   ...       0.00 

------------
INNER ENERGY
------------

The inner energy is: U= E(el) + E(ZPE) + E(vib) + E(rot) + E(trans)
    E(el)   - is the total energy from the electronic structure calculation
              = E(kin-el) + E(nuc-el) + E(el-el) + E(nuc-nuc)
    E(ZPE)  - the the zero temperature vibrational energy from the frequency calculation
    E(vib)  - the the finite temperature correction to E(ZPE) due to population
              of excited vibrational states
    E(rot)  - is the rotational thermal energy
    E(trans)- is the translational thermal energy

Summary of contributions to the inner energy U:
Electronic energy                ...   -595.97491238 Eh
Zero point energy                ...      0.24584999 Eh     154.27 kcal/mol
Thermal vibrational correction   ...      0.01042936 Eh       6.54 kcal/mol
Thermal rotational correction    ...      0.00141627 Eh       0.89 kcal/mol
Thermal translational correction ...      0.00141627 Eh       0.89 kcal/mol
-----------------------------------------------------------------------
Total thermal energy                   -595.71580048 Eh


Summary of corrections to the electronic energy:
(perhaps to be used in another calculation)
Total thermal correction                  0.01326191 Eh       8.32 kcal/mol
Non-thermal (ZPE) correction              0.24584999 Eh     154.27 kcal/mol
-----------------------------------------------------------------------
Total correction                          0.25911189 Eh     162.59 kcal/mol


--------
ENTHALPY
--------

The enthalpy is H = U + kB*T
                kB is Boltzmann's constant
Total thermal energy              ...   -595.71580048 Eh 
Thermal Enthalpy correction       ...      0.00094421 Eh       0.59 kcal/mol
-----------------------------------------------------------------------
Total Enthalpy                    ...   -595.71485627 Eh


Note: Only C1 symmetry has been detected, increase convergence thresholds 
      if your molecule has a higher symmetry. Symmetry factor of 1.0 is   
      used for the rotational entropy correction. 
 

Note: Rotational entropy computed according to Herzberg 
Infrared and Raman Spectra, Chapter V,1, Van Nostrand Reinhold, 1945 
Point Group:  C1, Symmetry Number:   1  
Rotational constants in cm-1:     0.050733     0.012729     0.011892 

Vibrational entropy computed according to the QRRHO of S. Grimme
Chem.Eur.J. 2012 18 9955 using a reference frequency of 100.0 cm-1


-------
ENTROPY
-------

The entropy contributions are T*S = T*(S(el)+S(vib)+S(rot)+S(trans))
     S(el)   - electronic entropy
     S(vib)  - vibrational entropy
     S(rot)  - rotational entropy
     S(trans)- translational entropy
The entropies will be listed as multiplied by the temperature to get
units of energy

Electronic entropy                ...      0.00000000 Eh      0.00 kcal/mol
Vibrational entropy               ...      0.01807127 Eh     11.34 kcal/mol
Rotational entropy                ...      0.01507060 Eh      9.46 kcal/mol
Translational entropy             ...      0.01977474 Eh     12.41 kcal/mol
-----------------------------------------------------------------------
Final entropy term                ...      0.05291661 Eh     33.21 kcal/mol

In case the symmetry of your molecule has not been determined correctly
or in case you have a reason to use a different symmetry number we print 
out the resulting rotational entropy values for sn=1,12:

 non-linear molecules -----------------------------------
|  sn= 1 | S(rot)=       0.01507060 Eh      9.46 kcal/mol|
|  sn= 2 | S(rot)=       0.01441615 Eh      9.05 kcal/mol|
|  sn= 3 | S(rot)=       0.01403332 Eh      8.81 kcal/mol|
|  sn= 4 | S(rot)=       0.01376169 Eh      8.64 kcal/mol|
|  sn= 5 | S(rot)=       0.01355100 Eh      8.50 kcal/mol|
|  sn= 6 | S(rot)=       0.01337886 Eh      8.40 kcal/mol|
|  sn= 7 | S(rot)=       0.01323331 Eh      8.30 kcal/mol|
|  sn= 8 | S(rot)=       0.01310724 Eh      8.22 kcal/mol|
|  sn= 9 | S(rot)=       0.01299603 Eh      8.16 kcal/mol|
|  sn=10 | S(rot)=       0.01289655 Eh      8.09 kcal/mol|
|  sn=11 | S(rot)=       0.01280656 Eh      8.04 kcal/mol|
|  sn=12 | S(rot)=       0.01272440 Eh      7.98 kcal/mol|
 linear molecules ---------------------------------------
|  Dinfh | S(rot)=       0.00951033 Eh      5.97 kcal/mol|
|  Cinfv | S(rot)=       0.01016479 Eh      6.38 kcal/mol|
 --------------------------------------------------------


-------------------
GIBBS FREE ENERGY
-------------------

The Gibbs free energy is G = H - T*S

Total enthalpy                    ...   -595.71485627 Eh 
Total entropy correction          ...     -0.05291661 Eh    -33.21 kcal/mol
-----------------------------------------------------------------------
Final Gibbs free energy         ...   -595.76777288 Eh

For completeness - the Gibbs free energy minus the electronic energy
G-E(el)                           ...      0.20713949 Eh    129.98 kcal/mol


Maximum memory used throughout the entire PROP-calculation: 270.0 MB

--------------------------------
SUGGESTED CITATIONS FOR THIS RUN
--------------------------------

Below you find a list of papers that are relevant to this ORCA run
We neither can nor want to force you to cite these papers, but we appreciate if you do
You receive ORCA, which is the product of decades of hard work by many enthusiastic individuals, for free
The only thing we kindly ask in return is that you cite our papers,
We deeply appreciate it, if you show your appreciation for ORCA by not just citing the generic ORCA reference.

Please note that relegating all ORCA citations to the supporting information does *not* help us.
SI sections are not indexed - citations you put there will not count into any citation statistics
But we need these citations in order to attract the funding resources that allow us to do what we are doing

Therefore, if you are a happy ORCA user, please consider citing a few of the papers listed below in the main body of your paper

In addition to the list printed below, the program has created the file hat_gs_freq.bibtex that contains the list in bibtex format
You can import this file easily into all common literature databanks and citation aid programs


List of essential papers. We consider these as the minimum necessary citations

  1. Neese, F.
     Software update: the ORCA program system, version 6.0
     WIRES Comput. Molec. Sci. 2025 15(1), e70019
     doi.org/10.1002/wcms.7019

List of papers to cite with high priority. The work reported in these papers was absolutely
necessary for this run to complete.
Our perspective: the developers of density functionals and basis sets usually get cited in chemistry papers
Good! But without the algorithms to do something with them, the functionals or basis sets would not do anything.
Hence, in our opinion, the algorithm design and method developments papers are equally worthy of getting cited

  1. Neese, F.
     An improvement of the resolution of the identity approximation for the formation of the Coulomb matrix
     J. Comp. Chem. 2003 24(14), 1740-1747
     doi.org/10.1002/jcc.10318
  2. Neese, F.
     Definition of corresponding orbitals and the diradical character in broken symmetry DFT calculations on spin coupled systems
     J. Phys. Chem. Solids 2004 65(4), 781-785
     doi.org/10.1016/j.jpcs.2003.11.015
  3. Neese, F.; Wennmohs, F.; Hansen, A.; Becker, U.
     Efficient, approximate and parallel Hartree-Fock and hybrid DFT calculations. A 'chain-of-spheres' algorithm for the Hartree-Fock exchange
     Chem. Phys. 2009 356(1-3), 98-109
     doi.org/10.1016/j.chemphys.2008.10.036
  4. Grimme, S.; Antony, J.; Ehrlich, S.; Krieg, H.
     A consistent and accurate ab initio parametrization of density functional dispersion correction (DFT-D) for the 94 elements H-Pu
     J. Chem. Phys. 2010 132 , 154104
     doi.org/10.1063/1.3382344
  5. Bykov, D.; Petrenko, T.; Izsak, R.; Kossmann, S.; Becker, U.; Valeev, E.; Neese, F.
     Efficient implementation of the analytic second derivatives of Hartree-Fock and hybrid DFT energies: a detailed analysis of different approximations
     Molec. Phys. 2015 113 , 1961-1977
     doi.org/10.1080/00268976.2015.1025114
  6. Stoychev, G.L.; Auer, A.A.; Neese, F.
     Automatic Generation of Auxiliary Basis Sets
     J. Theo. Comp. Chem. 2017 13 , 554-562
     doi.org/10.1021/acs.jctc.6b01041
  7. Garcia-Rates, M.; Neese, F.
     Efficient implementation of the analytical second derivatives of hartree-fock and hybrid DFT energies within the framework of the conductor-like polarizable continuum model
     J. Comput. Chem. 2019 40 , 1816-1828
     doi.org/10.1002/jcc.25833
  8. Garcia-Rates, M.; Neese, F.
     Effect of the Solute Cavity on the Solvation Energy and its Derivatives within the Framework of the Gaussian Charge Scheme
     J. Comput. Chem. 2020 41 , 922-939
     doi.org/10.1002/jcc.26139
  9. Helmich-Paris, B.; de Souza, B.; Neese, F.; Izsák, R.
     An improved chain of spheres for exchange algorithm
     J. Chem. Phys. 2021 155(10), 104109
     doi.org/10.1063/5.0058766
 10. Neese, F.
     The SHARK Integral Generation and Digestion System
     J. Comp. Chem. 2022 44(3), 381
     doi.org/10.1002/jcc.26942

List of suggested additional citations. These are papers that are important in the 'surrounding' of 
of this run, or papers that preceded the highly important papers. If you like your results we are grateful for a citation.

  1. Izsak, R.; Neese, F.
     An overlap fitted chain of spheres exchange method
     J. Chem. Phys. 2011 135 , 144105
     doi.org/10.1063/1.3646921
  2. Izsak, R.; Hansen, A.; Neese, F.
     The resolution of identity and chain of spheres approximations for the LPNO-CCSD singles Fock term
     Molec. Phys. 2012 110 , 2413-2417
     doi.org/10.1080/00268976.2012.687466
  3. Neese, F.
     The ORCA program system
     WIRES Comput. Molec. Sci. 2012 2(1), 73-78
     doi.org/10.1002/wcms.81
  4. Izsak, R.; Neese, F.; Klopper, W.
     Robust fitting techniques in the chain of spheres approximation to the Fock exchange: The role of the complementary space
     J. Chem. Phys. 2013 139 , 
     doi.org/10.1063/1.4819264
  5. Neese, F.
     Software update: the ORCA program system, version 4.0
     WIRES Comput. Molec. Sci. 2018 8(1), 1-6
     doi.org/10.1002/wcms.1327
  6. Neese, F.; Wennmohs, F.; Becker, U.; Riplinger, C.
     The ORCA quantum chemistry program package
     J. Chem. Phys. 2020 152(22), 224108
     doi.org/10.1063/5.0004608
  7. Neese, F.
     Software update: The ORCA program system—Version 5.0
     WIRES Comput. Molec. Sci. 2022 12(1), e1606
     doi.org/10.1002/wcms.1606

List of optional additional citations

  1. Neese, F.
     Approximate second-order SCF convergence for spin unrestricted wavefunctions
     Chem. Phys. Lett. 2000 325(1-3), 93-98
     doi.org/10.1016/s0009-2614(00)00662-x

Timings for individual modules:

Sum of individual times          ...      497.596 sec (=   8.293 min)
Startup calculation              ...        1.820 sec (=   0.030 min)   0.4 %
SCF iterations                   ...       75.781 sec (=   1.263 min)  15.2 %
Property integrals               ...      146.868 sec (=   2.448 min)  29.5 %
SCF Response                     ...      141.612 sec (=   2.360 min)  28.5 %
Property calculations            ...      131.515 sec (=   2.192 min)  26.4 %
                             ****ORCA TERMINATED NORMALLY****
TOTAL RUN TIME: 0 days 0 hours 8 minutes 18 seconds 240 msec
