
                                 *****************
                                 * O   R   C   A *
                                 *****************

                                            #,                                       
                                            ###                                      
                                            ####                                     
                                            #####                                    
                                            ######                                   
                                           ########,                                 
                                     ,,################,,,,,                         
                               ,,#################################,,                 
                          ,,##########################################,,             
                       ,#########################################, ''#####,          
                    ,#############################################,,   '####,        
                  ,##################################################,,,,####,       
                ,###########''''           ''''###############################       
              ,#####''   ,,,,##########,,,,          '''####'''          '####       
            ,##' ,,,,###########################,,,                        '##       
           ' ,,###''''                  '''############,,,                           
         ,,##''                                '''############,,,,        ,,,,,,###''
      ,#''                                            '''#######################'''  
     '                                                          ''''####''''         
             ,#######,   #######,   ,#######,      ##                                
            ,#'     '#,  ##    ##  ,#'     '#,    #''#        ,####,    ,#,          
            ##       ##  ##   ,#'  ##            #'  '#       #'       ,# #          
            ##       ##  #######   ##           ,######,      #####,      #          
            '#,     ,#'  ##    ##  '#,     ,#' ,#      #,     #,   #      #          
             '#######'   ##     ##  '#######'  #'      '#     '####' #    #          



                #########################################################
                #                        -***-                          #
                #          Department of theory and spectroscopy        #
                #                                                       #
                #                      Frank Neese                      #
                #                                                       #
                #     Directorship, Architecture, Infrastructure        #
                #                    SHARK, DRIVERS                     #
                #        Core code/Algorithms in most modules           #
                #                                                       #
                #        Max Planck Institute fuer Kohlenforschung      #
                #                Kaiser Wilhelm Platz 1                 #
                #                 D-45470 Muelheim/Ruhr                 #
                #                      Germany                          #
                #                                                       #
                #                  All rights reserved                  #
                #                        -***-                          #
                #########################################################


                         Program Version 6.1.0  -  RELEASE   -
                                (GIT: $679e74b$)
                          ($2025-06-10 18:02:51 +0200$)


 With contributions from (in alphabetic order):
[Max-Planck-Institut fuer Kohlenforschung]                               
  Daniel Aravena         : Magnetic Suceptibility                        
  Michael Atanasov       : Ab Initio Ligand Field Theory (pilot matlab implementation)
  Alexander A. Auer      : GIAO ZORA, VPT2 properties, NMR spectrum      
  Ute Becker             : All parallelization in ORCA, NUMFREQ, NUMCALC 
  Giovanni Bistoni       : ED, misc. LED, open-shell LED, HFLD           
  Dmytro Bykov           : pre 5.0 version of the SCF Hessian            
  Marcos Casanova-Páez   : Triplet and SCS-CIS(D). UHF-(DLPNO)-IP/EA/STEOM-CCSD. UHF-CVS-IP/STEOM-CCSD   
  Vijay G. Chilkuri      : MRCI spin determinant printing, contributions to CSF-ICE 
  Pauline Colinet        : FMM embedding                                 
  Dipayan Datta          : RHF DLPNO-CCSD density                        
  Achintya Kumar Dutta   : EOM-CC, STEOM-CC                              
  Nicolas Foglia         : Exact transition moments, OPA infrastructure, MCD improvements    
  Dmitry Ganyushin       : Spin-Orbit,Spin-Spin,Magnetic field MRCI      
  Miquel Garcia-Rates    : C-PCM and meta-GGA Hessian, CCSD/C-PCM, Gaussian charge scheme 
  Tiago L. C. Gouveia    : GS-ROHF, GS-ROCIS                             
  Yang Guo               : DLPNO-NEVPT2, F12-NEVPT2, CIM, IAO-localization        
  Andreas Hansen         : Spin unrestricted coupled pair/coupled cluster methods 
  Ingolf Harden          : AUTO-CI MPn and infrastructure                
  Benjamin Helmich-Paris : MC-RPA, TRAH-(SCF,CASSCF), AVAS, COSX integrals, SCF dyn. polar., MC-PDFT, srDFT 
  Lee Huntington         : MR-EOM, pCC                                   
  Robert Izsak           : Overlap fitted RIJCOSX, COSX-SCS-MP3, EOM     
  Riya Kayal             : Wick's Theorem for AUTO-CI, AUTO-CI UHF-CCSDT 
  Emily Kempfer          : AUTO-CI RHF CISDT and CCSDT, approximate NEVPT4
  Christian Kollmar      : KDIIS, OOCD, Brueckner-CCSD(T), CCSD density, CASPT2, CASPT2-K, improved NEVPT2 
  Axel Koslowski         : Symmetry handling                             
  Simone Kossmann        : meta-GGA functionals, TD-DFT gradient, OOMP2, (MP2 Hessian; deprecated post 5.0) 
  Lucas Lang             : DCDCAS, Hyperfine gauge corrections, ICE-SOC+SSC
  Marvin Lechner         : AUTO-CI (C++ implementation), FIC-MRCC        
  Spencer Leger          : CASSCF response                               
  Dagmar Lenk            : GEPOL surface, SMD, ORCA-2-JSON               
  Dimitrios Liakos       : Extrapolation schemes; Compound Job, Property file
  Dimitrios Manganas     : Further ROCIS development; embedding schemes. LFT, Crystal Embedding 
  Dimitrios Pantazis     : SARC Basis sets                               
  Anastasios Papadopoulos: AUTO-CI, single reference methods and gradients 
  Taras Petrenko         : pre 6.0 DFT Hessian and TD-DFT gradient,  ECA, NRVS 
  Petra Pikulova         : Analytic Raman intensities                    
  Peter Pinski           : DLPNO-MP2, DLPNO-MP2 Gradient                 
  Shashank Vittal Rao    : ES-AILFT, MagRelax                            
  Christoph Reimann      : Effective Core Potentials                     
  Marius Retegan         : Local ZFS, SOC                                
  Christoph Riplinger    : Optimizer, TS searches, QM/MM, DLPNO-CCSD(T), (RO)-DLPNO pert. Triples 
  Michael Roemelt        : Original ROCIS implementation, recursive CI coupling coefficients
  Masaaki Saitow         : Open-shell DLPNO-CCSD energy and density      
  Barbara Sandhoefer     : DKH picture change effects                    
  Yorick L. A. Schmerwitz: GMF and freeze-and-release deltaSCF, NEB S-IDPP initial path                    
  Kantharuban Sivalingam : CASSCF convergence/infrastructure, NEVPT2, NEVPT3, NEVPT4(SD), FIC-MRCI and CEPA variants
  Bernardo de Souza      : ESD, SOC TD-DFT                               
  Georgi L. Stoychev     : AutoAux, RI-MP2 NMR, DLPNO-MP2 response, X2C  
  Van Anh Tran           : RI-MP2 g-tensors                              
  Willem Van den Heuvel  : Paramagnetic NMR                              
  Zikuan Wang            : NOTCH, Electric field optimization            
  Frank Wennmohs         : Technical directorship and infrastructure     
  Hang Xu                : AUTO-CI-Response properties                   
                                                                         
[FACCTs GmbH]                                                            
  Markus Bursch, Nicolas Foglia, Miquel Garcia-Rates, Ingolf Harden, Hagen Neugebauer, Anastasios Papadopoulos, 
  Christoph Riplinger, Bernardo de Souza, Georgi L. Stoychev                                                    
                                                                 
  APM, various basis sets, CI-OPT, improved COSX, DLPNO-Multilevel,           
  DOCKER, DRACO, updates on ESD, Fragmentator, GOAT, IRC, LR-CPCM, L-BFGS, MBIS, meta-GGA TD-DFT gradient, ML-optimized integration grids, 
  MM, NACMEs, nearIR, NEB, NEB-TS, NL-DFT gradient (VV10), 2- and 3-layer-ONIOM, interface openCOSMO-RS, QMMM,   
  Crystal-QMMM, RESP, rigid body optimization, SF, symmetry and pop. for TD-DFT, various functionals, SOLVATOR                                   
                                                                         
[Other institutions]                                                     
  V. Asgeirsson          : NEB                                           
  Christoph Bannwarth    : sTDA-DFT, sTD-DFT, PBEh-3c, B97-3c, D3        
  Giovanni Bistoni       : ETS/NOCV, ADLD/ADEX, COVALED                  
  Martin Brehm           : Molecular dynamics                            
  Ronald Cardenas        : ETS/NOCV                                      
  Martina Colucci        : COVALED                                       
  Sebastian Ehlert       : rSCAN, r2SCAN, r2SCAN-3c, D4, dhf basis sets  
  Marvin Friede          : D4 for Fr, Ra, Ac-Lr                          
  Lars Goerigk           : TD-DFT with DH, B97 family of functionals     
  Stefan Grimme          : VdW corrections, initial TS optimization, DFT functionals, gCP, sTDA/sTD-DF 
  Waldemar Hujo          : DFT-NL                                        
  H. Jonsson             : NEB                                           
  Holger Kruse           : gCP                                           
  Marcel Mueller         : wB97X-3c, vDZP basis set                      
  Hagen Neugebauer       : wr2SCAN, Native XTB                           
  Gianluca Regni         : ADLD/ADEX                                     
  Tobias Risthaus        : pre 6.0 range-separated hybrid DFT and stability analysis
  Lukas Wittmann         : regularized MP2, r2SCAN double-hybrids, wr2SCAN        
                                                                         
We gratefully acknowledge several colleagues who have allowed us to      
interface, adapt or use parts of their codes:                            
  Ed Valeev, F. Pavosevic, A. Kumar             : LibInt (2-el integral package), F12 methods 
  Garnet Chan, S. Sharma, J. Yang, R. Olivares  : DMRG                   
  Ulf Ekstrom                                   : XCFun DFT Library      
  Mihaly Kallay                                 : mrcc  (arbitrary order and MRCC methods)
  Frank Weinhold                                : gennbo (NPA and NBO analysis)           
  Simon Mueller                                 : openCOSMO-RS                            
  Christopher J. Cramer and Donald G. Truhlar   : smd solvation model                     
  S Lehtola, MJT Oliveira, MAL Marques          : LibXC Library                           
  Liviu Ungur et al                             : ANISO software                          


 Your calculation uses the libint2 library for the computation of 2-el integrals
 For citations please refer to: http://libint.valeyev.net

 Your ORCA version has been built with support for libXC version: 7.0.0
 For citations please refer to: https://libxc.gitlab.io

 This ORCA versions uses:
   CBLAS   interface :  Fast vector & matrix operations
   LAPACKE interface :  Fast linear algebra routines
   SCALAPACK package :  Parallel linear algebra routines
   Shared memory     :  Shared parallel matrices
   BLAS/LAPACK       :  OpenBLAS 0.3.29  USE64BITINT DYNAMIC_ARCH NO_AFFINITY Cooperlake SINGLE_THREADED
        Core in use  :  Cooperlake
   Copyright (c) 2011-2014, The OpenBLAS Project


  ***********************************
  * Starting time: Sat Jun  6 14:29:24 2026
  * Host name:     skymarshal
  * Process ID:    2123458
  * Working dir.:  /tmp/pentane_TT_2123421
  ***********************************

NOTE: MaxCore=2813 MB was set to SCF,MP2,MDCI,CIPSI,MRCI,RASCI and CIS
      => If you want to overwrite this, your respective input block should be placed after the MaxCore statement
Your calculation utilizes the geometrical counterpoise correction gCP
Please cite in your paper:
H.Kruse, S. Grimme J.Chem.Phys., 136, (2012), 154101 
   

Your calculation utilizes the atom-pairwise dispersion correction
based on EEQ partial charges (D4)


================================================================================

----- Orbital basis set information -----
Your calculation utilizes the basis: def2-mTZVPP
   Stefan Grimme, Andreas Hansen, Sebastian Ehlert, and Jan-Michael Mewes 
   J. Chem. Phys. 154, 064103 (2021). DOI: 10.1063/5.0040021

----- AuxJ basis set information -----
Your calculation utilizes the basis: def2-mTZVPP/J
   Stefan Grimme, Andreas Hansen, Sebastian Ehlert, and Jan-Michael Mewes 
   J. Chem. Phys. 154, 000000 (2021). DOI: 10.1063/5.0040021

================================================================================
                                        WARNINGS
                       Please study these warnings very carefully!
================================================================================



WARNING: SCAN, rSCAN, or r2SCAN functional requested.
  ===> : libXC variant has now been activated.



WARNING: Geometry Optimization
  ===> : Switching off AutoStart
         For restart on a previous wavefunction, please use MOREAD

================================================================================
                                       INPUT FILE
================================================================================
NAME = pentane_TT.inp
|  1> ! r2SCAN-3c OPT FREQ
|  2> %pal nprocs 8 end
|  3> %maxcore 2813
|  4> * xyz 0 1
|  5>   C      2.524142    -0.060270     0.049008
|  6>   C      1.180911    -0.709329    -0.244258
|  7>   C      0.036529     0.298079    -0.136152
|  8>   C     -1.311760    -0.358394    -0.431663
|  9>   C     -2.453041     0.640451    -0.325188
| 10>   H      2.546763     0.354245     1.061927
| 11>   H      2.731665     0.748913    -0.658448
| 12>   H      3.327956    -0.798455    -0.033945
| 13>   H      1.202761    -1.141602    -1.251423
| 14>   H      1.018875    -1.534090     0.459469
| 15>   H      0.205521     1.123131    -0.838918
| 16>   H      0.021666     0.730709     0.871697
| 17>   H     -1.303537    -0.788749    -1.439852
| 18>   H     -1.487422    -1.181237     0.271039
| 19>   H     -2.324344     1.460720    -1.038584
| 20>   H     -2.509235     1.066078     0.681798
| 21>   H     -3.407450     0.149796    -0.540312
| 22> *
| 23> 
| 24>                          ****END OF INPUT****
================================================================================

                       *****************************
                       * Geometry Optimization Run *
                       *****************************

Geometry optimization settings:
Update method            Update   .... BFGS
Choice of coordinates    CoordSys .... (2022) Redundant Internals
Initial Hessian          InHess   .... Almloef's Model
Max. no of cycles        MaxIter  .... 51

Convergence Tolerances:
Energy Change            TolE     ....  5.0000e-06 Eh
Max. Gradient            TolMAXG  ....  3.0000e-04 Eh/bohr
RMS Gradient             TolRMSG  ....  1.0000e-04 Eh/bohr
Max. Displacement        TolMAXD  ....  4.0000e-03 bohr
RMS Displacement         TolRMSD  ....  2.0000e-03 bohr
Strict Convergence                .... False

------------------------------------------------------------------------------
                        ORCA OPTIMIZATION COORDINATE SETUP
------------------------------------------------------------------------------

The optimization will be done in redundant internal coordinates (2022)
Making redundant internal coordinates   ...  (2022 redundants) done
Evaluating the initial hessian          ...  (Almloef) done
Evaluating the coordinates              ...  done
Calculating the B-matrix                .... done
Calculating the G-matrix                .... done
The number of degrees of freedom        ....   70

    -----------------------------------------------------------------
                    Redundant Internal Coordinates


    -----------------------------------------------------------------
         Definition                    Initial Value    Approx d2E/dq
    -----------------------------------------------------------------
      1. B(C   1,C   0)                  1.5204         0.387015   
      2. B(C   2,C   1)                  1.5285         0.375704   
      3. B(C   3,C   2)                  1.5285         0.375705   
      4. B(C   4,C   3)                  1.5204         0.387015   
      5. B(H   5,C   0)                  1.0947         0.353953   
      6. B(H   6,C   0)                  1.0947         0.353954   
      7. B(H   7,C   0)                  1.0945         0.354205   
      8. B(H   8,C   1)                  1.0962         0.351953   
      9. B(H   9,C   1)                  1.0962         0.351953   
     10. B(H  10,C   2)                  1.0969         0.351111   
     11. B(H  11,C   2)                  1.0969         0.351111   
     12. B(H  12,C   3)                  1.0962         0.351953   
     13. B(H  13,C   3)                  1.0962         0.351953   
     14. B(H  14,C   4)                  1.0947         0.353954   
     15. B(H  15,C   4)                  1.0947         0.353954   
     16. B(H  16,C   4)                  1.0945         0.354204   
     17. A(C   1,C   0,H   7)          110.2610         0.325324   
     18. A(H   5,C   0,H   6)          108.3108         0.289273   
     19. A(C   1,C   0,H   5)          111.0014         0.325286   
     20. A(C   1,C   0,H   6)          111.0015         0.325286   
     21. A(H   5,C   0,H   7)          108.0799         0.289305   
     22. A(H   6,C   0,H   7)          108.0800         0.289305   
     23. A(C   0,C   1,C   2)          111.4977         0.365911   
     24. A(C   0,C   1,H   8)          109.1444         0.324983   
     25. A(H   8,C   1,H   9)          107.2215         0.288759   
     26. A(C   2,C   1,H   8)          109.8652         0.323404   
     27. A(C   0,C   1,H   9)          109.1445         0.324983   
     28. A(C   2,C   1,H   9)          109.8653         0.323405   
     29. A(C   1,C   2,H  10)          109.5784         0.323277   
     30. A(C   1,C   2,C   3)          111.3279         0.364058   
     31. A(C   3,C   2,H  11)          109.5784         0.323277   
     32. A(C   1,C   2,H  11)          109.5784         0.323277   
     33. A(C   3,C   2,H  10)          109.5784         0.323277   
     34. A(H  10,C   2,H  11)          107.1038         0.288543   
     35. A(C   2,C   3,C   4)          111.4977         0.365911   
     36. A(H  12,C   3,H  13)          107.2214         0.288759   
     37. A(C   4,C   3,H  13)          109.1445         0.324984   
     38. A(C   2,C   3,H  13)          109.8652         0.323405   
     39. A(C   4,C   3,H  12)          109.1444         0.324984   
     40. A(C   2,C   3,H  12)          109.8652         0.323405   
     41. A(H  15,C   4,H  16)          108.0799         0.289305   
     42. A(H  14,C   4,H  16)          108.0799         0.289305   
     43. A(C   3,C   4,H  16)          110.2610         0.325324   
     44. A(H  14,C   4,H  15)          108.3108         0.289273   
     45. A(C   3,C   4,H  15)          111.0016         0.325287   
     46. A(C   3,C   4,H  14)          111.0014         0.325286   
     47. D(H   8,C   1,C   0,H   7)    -58.4442         0.011916   
     48. D(H   8,C   1,C   0,H   5)   -178.1839         0.011916   
     49. D(C   2,C   1,C   0,H   7)   -179.9998         0.011916   
     50. D(C   2,C   1,C   0,H   5)     60.2605         0.011916   
     51. D(H   8,C   1,C   0,H   6)     61.2956         0.011916   
     52. D(C   2,C   1,C   0,H   6)    -60.2599         0.011916   
     53. D(C   3,C   2,C   1,C   0)    180.0000         0.011264   
     54. D(H  10,C   2,C   1,H   9)    179.7592         0.011264   
     55. D(H  10,C   2,C   1,H   8)    -62.5138         0.011264   
     56. D(H  10,C   2,C   1,C   0)     58.6226         0.011264   
     57. D(C   3,C   2,C   1,H   9)    -58.8634         0.011264   
     58. D(C   3,C   2,C   1,H   8)     58.8636         0.011264   
     59. D(C   4,C   3,C   2,H  11)     58.6226         0.011264   
     60. D(C   4,C   3,C   2,H  10)    -58.6226         0.011264   
     61. D(C   4,C   3,C   2,C   1)    180.0000         0.011264   
     62. D(H  12,C   3,C   2,H  11)    179.7591         0.011264   
     63. D(H  12,C   3,C   2,H  10)     62.5138         0.011264   
     64. D(H  12,C   3,C   2,C   1)    -58.8635         0.011264   
     65. D(H  15,C   4,C   3,H  13)     61.2963         0.011916   
     66. D(H  15,C   4,C   3,H  12)    178.1850         0.011916   
     67. D(H  15,C   4,C   3,C   2)    -60.2594         0.011916   
     68. D(H  14,C   4,C   3,H  13)   -178.1832         0.011916   
     69. D(H  14,C   4,C   3,H  12)    -61.2945         0.011916   
     70. D(H  14,C   4,C   3,C   2)     60.2611         0.011916   
    -----------------------------------------------------------------

Number of atoms                         .... 17
Number of degrees of freedom            .... 70


         *************************************************************
         *                GEOMETRY OPTIMIZATION CYCLE   1            *
         *************************************************************
---------------------------------
CARTESIAN COORDINATES (ANGSTROEM)
---------------------------------
  C      2.524142   -0.060270    0.049008
  C      1.180911   -0.709329   -0.244258
  C      0.036529    0.298079   -0.136152
  C     -1.311760   -0.358394   -0.431663
  C     -2.453041    0.640451   -0.325188
  H      2.546763    0.354245    1.061927
  H      2.731665    0.748913   -0.658448
  H      3.327956   -0.798455   -0.033945
  H      1.202761   -1.141602   -1.251423
  H      1.018875   -1.534090    0.459469
  H      0.205521    1.123131   -0.838918
  H      0.021666    0.730709    0.871697
  H     -1.303537   -0.788749   -1.439852
  H     -1.487422   -1.181237    0.271039
  H     -2.324344    1.460720   -1.038584
  H     -2.509235    1.066078    0.681798
  H     -3.407450    0.149796   -0.540312

----------------------------
CARTESIAN COORDINATES (A.U.)
----------------------------
  NO LB      ZA    FRAG     MASS         X           Y           Z
   0 C     6.0000    0    12.011    4.769937   -0.113894    0.092612
   1 C     6.0000    0    12.011    2.231598   -1.340438   -0.461581
   2 C     6.0000    0    12.011    0.069030    0.563288   -0.257290
   3 C     6.0000    0    12.011   -2.478867   -0.677267   -0.815725
   4 C     6.0000    0    12.011   -4.635576    1.210277   -0.614516
   5 H     1.0000    0     1.008    4.812685    0.669426    2.006751
   6 H     1.0000    0     1.008    5.162099    1.415240   -1.244286
   7 H     1.0000    0     1.008    6.288925   -1.508861   -0.064147
   8 H     1.0000    0     1.008    2.272889   -2.157315   -2.364847
   9 H     1.0000    0     1.008    1.925395   -2.899010    0.868271
  10 H     1.0000    0     1.008    0.388378    2.122410   -1.585325
  11 H     1.0000    0     1.008    0.040943    1.380840    1.647269
  12 H     1.0000    0     1.008   -2.463328   -1.490520   -2.720926
  13 H     1.0000    0     1.008   -2.810820   -2.232214    0.512189
  14 H     1.0000    0     1.008   -4.392374    2.760361   -1.962639
  15 H     1.0000    0     1.008   -4.741767    2.014595    1.288411
  16 H     1.0000    0     1.008   -6.439147    0.283073   -1.021042

--------------------------------
INTERNAL COORDINATES (ANGSTROEM)
--------------------------------
 C      0   0   0     0.000000000000     0.00000000     0.00000000
 C      1   0   0     1.520378917112     0.00000000     0.00000000
 C      2   1   0     1.528452795354   111.49768766     0.00000000
 C      3   2   1     1.528452412858   111.32788809   179.99997775
 C      4   3   2     1.520378433355   111.49767334   179.99999628
 H      1   2   3     1.094686848111   111.00143585    60.26048832
 H      1   2   3     1.094685760825   111.00151010   299.74005281
 H      1   2   3     1.094493143437   110.26104176   180.00020629
 H      2   1   3     1.096229312805   109.14437189   121.55557562
 H      2   1   3     1.096229019387   109.14447878   238.44425245
 H      3   2   1     1.096881556743   109.57838667    58.62260478
 H      3   2   1     1.096881594553   109.57835098   301.37739090
 H      4   3   2     1.096229037873   109.86519746   301.13645721
 H      4   3   2     1.096228918473   109.86522834    58.86336944
 H      5   4   3     1.094686257786   111.00140626    60.26106499
 H      5   4   3     1.094685759915   111.00156636   299.74057346
 H      5   4   3     1.094494040040   110.26104093   180.00073866

---------------------------
INTERNAL COORDINATES (A.U.)
---------------------------
 C      0   0   0     0.000000000000     0.00000000     0.00000000
 C      1   0   0     2.873099773129     0.00000000     0.00000000
 C      2   1   0     2.888357191845   111.49768766     0.00000000
 C      3   2   1     2.888356469032   111.32788809   179.99997775
 C      4   3   2     2.873098858961   111.49767334   179.99999628
 H      1   2   3     2.068658345335   111.00143585    60.26048832
 H      1   2   3     2.068656290663   111.00151010   299.74005281
 H      1   2   3     2.068292296550   110.26104176   180.00020629
 H      2   1   3     2.071573181179   109.14437189   121.55557562
 H      2   1   3     2.071572626698   109.14447878   238.44425245
 H      3   2   1     2.072805743594   109.57838667    58.62260478
 H      3   2   1     2.072805815045   109.57835098   301.37739090
 H      4   3   2     2.071572661631   109.86519746   301.13645721
 H      4   3   2     2.071572435999   109.86522834    58.86336944
 H      5   4   3     2.068657229783   111.00140626    60.26106499
 H      5   4   3     2.068656288943   111.00156636   299.74057346
 H      5   4   3     2.068293990884   110.26104093   180.00073866

---------------------
BASIS SET INFORMATION
---------------------
There are 2 groups of distinct atoms

 Group   1 Type C   : 11s6p1d contracted to 5s3p1d pattern {62111/411/1}
 Group   2 Type H   : 4s1p contracted to 2s1p pattern {31/1}

Atom   0C    basis set group =>   1
Atom   1C    basis set group =>   1
Atom   2C    basis set group =>   1
Atom   3C    basis set group =>   1
Atom   4C    basis set group =>   1
Atom   5H    basis set group =>   2
Atom   6H    basis set group =>   2
Atom   7H    basis set group =>   2
Atom   8H    basis set group =>   2
Atom   9H    basis set group =>   2
Atom  10H    basis set group =>   2
Atom  11H    basis set group =>   2
Atom  12H    basis set group =>   2
Atom  13H    basis set group =>   2
Atom  14H    basis set group =>   2
Atom  15H    basis set group =>   2
Atom  16H    basis set group =>   2
---------------------------------
AUXILIARY/J BASIS SET INFORMATION
---------------------------------
There are 2 groups of distinct atoms

 Group   1 Type C   : 8s3p3d contracted to 6s3p3d pattern {311111/111/111}
 Group   2 Type H   : 5s2p1d contracted to 3s1p1d pattern {311/2/1}

Atom   0C    basis set group =>   1
Atom   1C    basis set group =>   1
Atom   2C    basis set group =>   1
Atom   3C    basis set group =>   1
Atom   4C    basis set group =>   1
Atom   5H    basis set group =>   2
Atom   6H    basis set group =>   2
Atom   7H    basis set group =>   2
Atom   8H    basis set group =>   2
Atom   9H    basis set group =>   2
Atom  10H    basis set group =>   2
Atom  11H    basis set group =>   2
Atom  12H    basis set group =>   2
Atom  13H    basis set group =>   2
Atom  14H    basis set group =>   2
Atom  15H    basis set group =>   2
Atom  16H    basis set group =>   2
Authorization required, but no authorization protocol specified


           ************************************************************
           *        Program running with 8 parallel MPI-processes     *
           *              working on a common directory               *
           ************************************************************
------------------------------------------------------------------------------
                             ORCA STARTUP CALCULATIONS
                           -- RI-GTO INTEGRALS CHOSEN --
------------------------------------------------------------------------------
------------------------------------------------------------------------------
                   ___                                                        
                  /   \      - P O W E R E D   B Y -                         
                 /     \                                                     
                 |  |  |   _    _      __       _____    __    __             
                 |  |  |  | |  | |    /  \     |  _  \  |  |  /  |          
                  \  \/   | |  | |   /    \    | | | |  |  | /  /          
                 / \  \   | |__| |  /  /\  \   | |_| |  |  |/  /          
                |  |  |   |  __  | /  /__\  \  |    /   |      \           
                |  |  |   | |  | | |   __   |  |    \   |  |\   \          
                \     /   | |  | | |  |  |  |  | |\  \  |  | \   \       
                 \___/    |_|  |_| |__|  |__|  |_| \__\ |__|  \__/        
                                                                              
                      - O R C A' S   B I G   F R I E N D -                    
                                      &                                       
                       - I N T E G R A L  F E E D E R -                       
                                                                              
 v1 FN, 2020, v2 2021, v3 2022-2024                                           
------------------------------------------------------------------------------


----------------------
SHARK INTEGRAL PACKAGE
----------------------

Number of atoms                             ...     17
Number of basis functions                   ...    155
Number of shells                            ...     81
Maximum angular momentum                    ...      2
Integral batch strategy                     ... SHARK/LIBINT Hybrid
RI-J (if used) integral strategy            ... SPLIT-RIJ (Revised 2003 algorithm where possible)
Printlevel                                  ...      1
Contraction scheme used                     ... SEGMENTED contraction
Prescreening option                         ... SCHWARTZ
   Thresh                                   ... 2.500e-11
   Tcut                                     ... 2.500e-12
   Tpresel                                  ... 2.500e-12 
Coulomb Range Separation                    ... NOT USED
Exchange Range Separation                   ... NOT USED
Multipole approximations                    ... NOT USED
Finite Nucleus Model                        ... NOT USED
CABS basis                                  ... NOT available
Auxiliary Coulomb fitting basis             ... AVAILABLE
   # of basis functions in Aux-J            ...    282
   # of shells in Aux-J                     ...    120
   Maximum angular momentum in Aux-J        ...      2
Auxiliary J/K fitting basis                 ... NOT available
Auxiliary Correlation fitting basis         ... NOT available
Auxiliary 'external' fitting basis          ... NOT available

Checking pre-screening integrals            ... done (  0.0 sec) Dimension = 81
   => SHARK Basis and OBASIS are compatible. Storing Pre-screening
Shell pair information
Shell pair cut-off parameter TPreSel        ...   2.5e-12
Total number of shell pairs                 ...      3321
Shell pairs after pre-screening             ...      3073
Total number of primitive shell pairs       ...     11471
Primitive shell pairs kept                  ...      8055
          la=0 lb=0:   1136 shell pairs
          la=1 lb=0:   1225 shell pairs
          la=1 lb=1:    348 shell pairs
          la=2 lb=0:    225 shell pairs
          la=2 lb=1:    125 shell pairs
          la=2 lb=2:     14 shell pairs

Checking whether 4 symmetric matrices of dimension 155 fit in memory
:Max Core in MB      =   2813.00
 MB in use           =      5.21
 MB left             =   2807.79
 MB needed           =      0.37
 Data fit in memory  = YES
Calculating RI/J V-Matrix + Cholesky decomp.... done (  0.0 sec)
Calculating Nuclear repulsion               ... done (  0.0 sec) ENN=    185.695943011114 Eh

Diagonalization of the overlap matrix:
Smallest eigenvalue                        ... 1.967e-04
Time for diagonalization                   ...    0.001 sec
Threshold for overlap eigenvalues          ... 1.000e-07
Number of eigenvalues below threshold      ... 0
Time for construction of square roots      ...    0.001 sec
Total time needed                          ...    0.002 sec

-------------------
DFT GRID GENERATION
-------------------

General Integration Accuracy     IntAcc      ... 4.388
Radial Grid Type                 RadialGrid  ... OptM3 with GC (2021)
Angular Grid (max. ang.)         AngularGrid ... 4 (Lebedev-302)
Angular grid pruning method      GridPruning ... 4 (adaptive)
Weight generation scheme         WeightScheme... mBecke (2022)
Basis function cutoff            BFCut       ... 1.0000e-11
Integration weight cutoff        WCut        ... 1.0000e-14
Partially contracted basis set               ... off
Rotationally invariant grid construction     ... off
Angular grids for H and He will be reduced by one unit

Total number of grid points                  ...    68687
Total number of batches                      ...     1082
Average number of points per batch           ...       63
Average number of grid points per atom       ...     4040
Grids setup in   0.2 sec
Initializing property integral containers    ... done (  0.0 sec)

SHARK setup successfully completed in   0.2 seconds

Maximum memory used throughout the entire STARTUP-calculation: 17.6 MB
Authorization required, but no authorization protocol specified


           ************************************************************
           *        Program running with 8 parallel MPI-processes     *
           *              working on a common directory               *
           ************************************************************
-------------------------------------------------------------------------------
                                 ORCA GUESS
                   Start orbitals & Density for SCF / CASSCF
-------------------------------------------------------------------------------

------------
SCF SETTINGS
------------
Hamiltonian:
 Density Functional     Method          .... DFT(GTOs)
  Functional kind                       .... Exchange
  Functional name                       .... Re-regularized SCAN exchange by Furness et al
  Functional family                     .... MGGA
  Functional refs                              
    [ 0] J. W. Furness, A. D. Kaplan, J. Ning, J. P. Perdew, and J. Sun.,  J. Phys. Chem. Lett. 11, 8208-8215 (2020), doi: 10.1021/acs.jpclett.0c02405
    [ 1] J. W. Furness, A. D. Kaplan, J. Ning, J. P. Perdew, and J. Sun.,  J. Phys. Chem. Lett. 11, 9248-9248 (2020), doi: 10.1021/acs.jpclett.0c03077
  Functional external parameters        .... 6
    Parameter  0 _c1        =  6.670000e-01 : c1 parameter        
    Parameter  1 _c2        =  8.000000e-01 : c2 parameter        
    Parameter  2 _d         =  1.240000e+00 : d parameter         
    Parameter  3 _k1        =  6.500000e-02 : k1 parameter        
    Parameter  4 _eta       =  1.000000e-03 : eta parameter       
    Parameter  5 _dp2       =  3.610000e-01 : dp2 parameter       
  Functional kind                       .... Correlation
  Functional name                       .... Re-regularized SCAN correlation by Furness et al
  Functional family                     .... MGGA
  Functional refs                              
    [ 0] J. W. Furness, A. D. Kaplan, J. Ning, J. P. Perdew, and J. Sun.,  J. Phys. Chem. Lett. 11, 8208-8215 (2020), doi: 10.1021/acs.jpclett.0c02405
    [ 1] J. W. Furness, A. D. Kaplan, J. Ning, J. P. Perdew, and J. Sun.,  J. Phys. Chem. Lett. 11, 9248-9248 (2020), doi: 10.1021/acs.jpclett.0c03077
  Functional external parameters        .... 1
    Parameter  0 _eta       =  1.000000e-03 : Regularization parameter
 Gradients option       PostSCFGGA      .... off
 RI-approximation to the Coulomb term is turned on
   Number of AuxJ basis functions       .... 282


General Settings:
 Integral files         IntName         .... pentane_TT
 Hartree-Fock type      HFTyp           .... RHF
 Total Charge           Charge          ....    0
 Multiplicity           Mult            ....    1
 Number of Electrons    NEL             ....   42
 Basis Dimension        Dim             ....  155
 Nuclear Repulsion      ENuc            ....    185.6959430111 Eh

Convergence Acceleration:
 AO-DIIS                CNVDIIS         .... on
   Start iteration      DIISMaxIt       ....    12
   Startup error        DIISStart       ....  0.200000
   # of expansion vecs  DIISMaxEq       ....     5
   Bias factor          DIISBfac        ....   1.050
   Max. coefficient     DIISMaxC        ....  10.000
 MO-DIIS                CNVKDIIS        .... off
 Trust-Rad. Augm. Hess. CNVTRAH         .... auto
   Auto Start mean grad. ratio tolernc. ....  1.125000
   Auto Start start iteration           ....    50
   Auto Start num. interpolation iter.  ....    10
   Max. Number of Micro iterations      ....    24
   Max. Number of Macro iterations      .... Maxiter - #DIIS iter
   Number of Davidson start vectors     ....     2
   Converg. threshold    (grad. norm)   ....   1.000e-05
   Grad. Scal. Fac. for Micro threshold ....   0.100
   Minimum threshold for Micro iter.    ....   1.000e-02
   NR start threshold (gradient norm)   ....   1.000e-04
   Initial trust radius                 ....   0.400
   Minimum AH scaling param. (alpha)    ....   1.000
   Maximum AH scaling param. (alpha)    .... 1000.000
   Quad. conv. algorithm                .... NR
   White noise on init. David. guess    .... on
   Maximum white noise                  ....   0.010
   Pseudo random numbers                .... off
   Inactive MOs                         .... canonical
   Orbital update algorithm             .... Taylor
   Preconditioner                       .... Diag
   Full preconditioner red. dimension   ....   250
   COSX micro iterations for RIJONX calc.... off
 SOSCF                 CNVSOSCF           .... on
   Start iteration     SOSCFMaxIt         ....   150
   Startup grad/error  SOSCFStart         ....  0.003300
   Hessian update      SOSCFHessUp        .... L-BFGS
   Autom. constraints  SOSCFAutoConstrain .... off
 Level Shifting         CNVShift        .... on
   Level shift para.    LevelShift      ....    0.2500
   Turn off err/grad.   ShiftErr        ....    0.0010
 Zerner damping         CNVZerner       .... off
 Static damping         CNVDamp         .... on
   Fraction old density DampFac         ....    0.7000
   Max. Damping (<1)    DampMax         ....    0.9800
   Min. Damping (>=0)   DampMin         ....    0.0000
   Turn off err/grad.   DampErr         ....    0.1000

SCF Procedure:
 Maximum # iterations   MaxIter         ....   125
 SCF integral mode      SCFMode         .... Direct
   Integral package                     .... SHARK and LIBINT hybrid scheme
 Reset frequency        DirectResetFreq ....    20
 Integral Threshold     Thresh          ....  2.500e-11 Eh
 Primitive CutOff       TCut            ....  2.500e-12 Eh

Convergence Tolerance:
 Convergence Check Mode ConvCheckMode   .... Total+1el-Energy
 Convergence forced     ConvForced      .... 0
 Energy Change          TolE            ....  1.000e-08 Eh
 1-El. energy change                    ....  1.000e-05 Eh
 Orbital Gradient       TolG            ....  1.000e-05
 Orbital Rotation angle TolX            ....  1.000e-05
 DIIS Error             TolErr          ....  5.000e-07

------------------------------
INITIAL GUESS: MODEL POTENTIAL
------------------------------
Loading Hartree-Fock densities                     ... done
Calculating cut-offs                               ... done
Initializing the effective Hamiltonian             ... done
Setting up the integral package (SHARK)            ... done
Starting the Coulomb interaction                   ... done (   0.0 sec)
Making the grid                                    ... done (   0.0 sec)
Mapping shells                                     ... done
Starting the XC term evaluation                    ... done (   0.0 sec)
  promolecular density results
     # of electrons  =     41.997041498
     EX              =    -29.106123461
     EC              =     -1.344120229
     EX+EC           =    -30.450243690
Transforming the Hamiltonian                       ... done (   0.0 sec)
Diagonalizing the Hamiltonian                      ... done (   0.0 sec)
Back transforming the eigenvectors                 ... done (   0.0 sec)
Now organizing SCF variables                       ... done
                      ------------------
                      INITIAL GUESS DONE (   0.1 sec)
                      ------------------
             **** ENERGY FILE WAS UPDATED (pentane_TT.en.tmp) ****
Finished Guess after   0.1 sec
Maximum memory used throughout the entire GUESS-calculation: 7.8 MB
Authorization required, but no authorization protocol specified


           ************************************************************
           *        Program running with 8 parallel MPI-processes     *
           *              working on a common directory               *
           ************************************************************

-------------------------------------------------------------------------------------------
                                      ORCA LEAN-SCF
                              memory conserving SCF solver
-------------------------------------------------------------------------------------------

----------------------------------------D-I-I-S--------------------------------------------
Iteration    Energy (Eh)           Delta-E    RMSDP     MaxDP     DIISErr   Damp  Time(sec)
-------------------------------------------------------------------------------------------
               ***  Starting incremental Fock matrix formation  ***
    1    -197.4809601372488430     0.00e+00  6.63e-03  3.50e-02  1.89e-01  0.700   0.1
    2    -197.5843032983309229    -1.03e-01  4.85e-03  2.24e-02  9.61e-02  0.700   0.1
                               ***Turning on AO-DIIS***
    3    -197.6236118098806003    -3.93e-02  1.86e-03  7.34e-03  3.35e-02  0.700   0.1
    4    -197.6460671278149164    -2.25e-02  2.93e-03  1.01e-02  1.41e-02  0.000   0.1
    5    -197.6957591435401298    -4.97e-02  6.50e-04  3.16e-03  8.01e-03  0.000   0.1
                              *** Initializing SOSCF ***
---------------------------------------S-O-S-C-F--------------------------------------
Iteration    Energy (Eh)           Delta-E    RMSDP     MaxDP     MaxGrad    Time(sec)
--------------------------------------------------------------------------------------
    6    -197.6961693080102407    -4.10e-04  2.38e-04  1.28e-03  1.79e-03     0.1
               *** Restarting incremental Fock matrix formation ***
    7    -197.6961964318692537    -2.71e-05  1.27e-04  6.37e-04  2.63e-04     0.1
    8    -197.6961962636956116     1.68e-07  4.81e-05  2.92e-04  2.81e-04     0.1
    9    -197.6961984470679283    -2.18e-06  1.41e-05  8.21e-05  2.22e-05     0.1
   10    -197.6961984556105847    -8.54e-09  5.15e-06  2.27e-05  1.36e-05     0.1
                 **** Energy Check signals convergence ****

               *****************************************************
               *                     SUCCESS                       *
               *           SCF CONVERGED AFTER  10 CYCLES          *
               *****************************************************

             **** ENERGY FILE WAS UPDATED (pentane_TT.en.tmp) ****

----------------
TOTAL SCF ENERGY
----------------

Total Energy       :       -197.69619846285727 Eh           -5379.58705 eV

Components:
Nuclear Repulsion  :        185.69594301111405 Eh            5053.04350 eV
Electronic Energy  :       -383.39214147397132 Eh          -10432.63055 eV
One Electron Energy:       -631.89512198935029 Eh          -17194.74043 eV
Two Electron Energy:        248.50298051537897 Eh            6762.10988 eV

Virial components:
Potential Energy   :       -394.36403658818256 Eh          -10731.19100 eV
Kinetic Energy     :        196.66783812532532 Eh            5351.60395 eV
Virial Ratio       :          2.00522891972238

DFT components:
N(Alpha)           :       21.000102311752 electrons
N(Beta)            :       21.000102311752 electrons
N(Total)           :       42.000204623503 electrons
E(X)               :      -30.275896468351 Eh       
E(C)               :       -1.276328760466 Eh       
E(XC)              :      -31.552225228817 Eh       

---------------
SCF CONVERGENCE
---------------

  Last Energy change         ...    8.5427e-09  Tolerance :   1.0000e-08
  Last MAX-Density change    ...    2.2677e-05  Tolerance :   1.0000e-07
  Last RMS-Density change    ...    5.1474e-06  Tolerance :   5.0000e-09
  Last DIIS Error            ...    1.7881e-03  Tolerance :   5.0000e-07
  Last Orbital Gradient      ...    1.3641e-05  Tolerance :   1.0000e-05
  Last Orbital Rotation      ...    1.5716e-05  Tolerance :   1.0000e-05


----------------
ORBITAL ENERGIES
----------------

  NO   OCC          E(Eh)            E(eV) 
   0   2.0000     -10.020867      -272.6817 
   1   2.0000     -10.020866      -272.6816 
   2   2.0000     -10.019431      -272.6426 
   3   2.0000     -10.014051      -272.4962 
   4   2.0000     -10.014049      -272.4961 
   5   2.0000      -0.766603       -20.8603 
   6   2.0000      -0.715588       -19.4721 
   7   2.0000      -0.638377       -17.3711 
   8   2.0000      -0.559940       -15.2367 
   9   2.0000      -0.539329       -14.6759 
  10   2.0000      -0.442581       -12.0432 
  11   2.0000      -0.404752       -11.0139 
  12   2.0000      -0.399056       -10.8589 
  13   2.0000      -0.371096       -10.0980 
  14   2.0000      -0.358951        -9.7676 
  15   2.0000      -0.343000        -9.3335 
  16   2.0000      -0.320208        -8.7133 
  17   2.0000      -0.300797        -8.1851 
  18   2.0000      -0.297320        -8.0905 
  19   2.0000      -0.289067        -7.8659 
  20   2.0000      -0.277982        -7.5643 
  21   0.0000       0.101038         2.7494 
  22   0.0000       0.106364         2.8943 
  23   0.0000       0.122795         3.3414 
  24   0.0000       0.140485         3.8228 
  25   0.0000       0.141541         3.8515 
  26   0.0000       0.147543         4.0148 
  27   0.0000       0.157052         4.2736 
  28   0.0000       0.172103         4.6832 
  29   0.0000       0.180547         4.9129 
  30   0.0000       0.185784         5.0554 
  31   0.0000       0.194075         5.2810 
*Only the first 10 virtual orbitals were printed.

                    ********************************
                    * MULLIKEN POPULATION ANALYSIS *
                    ********************************

-----------------------
MULLIKEN ATOMIC CHARGES
-----------------------
   0 C :   -0.466108
   1 C :   -0.229189
   2 C :   -0.265297
   3 C :   -0.229409
   4 C :   -0.465995
   5 H :    0.140346
   6 H :    0.140353
   7 H :    0.144703
   8 H :    0.134535
   9 H :    0.134504
  10 H :    0.133538
  11 H :    0.133558
  12 H :    0.134562
  13 H :    0.134526
  14 H :    0.140334
  15 H :    0.140334
  16 H :    0.144706
Sum of atomic charges:    0.0000000

--------------------------------
MULLIKEN REDUCED ORBITAL CHARGES
--------------------------------
  0 C s       :     3.324044  s :     3.324044
      pz      :     1.072926  p :     3.113541
      px      :     0.980914
      py      :     1.059701
      dz2     :     0.006080  d :     0.028523
      dxz     :     0.002849
      dyz     :     0.006415
      dx2y2   :     0.004761
      dxy     :     0.008417

  1 C s       :     3.212991  s :     3.212991
      pz      :     1.080532  p :     2.977359
      px      :     0.909538
      py      :     0.987289
      dz2     :     0.006876  d :     0.038839
      dxz     :     0.004340
      dyz     :     0.009007
      dx2y2   :     0.008351
      dxy     :     0.010265

  2 C s       :     3.248347  s :     3.248347
      pz      :     1.071712  p :     2.978628
      px      :     0.921285
      py      :     0.985630
      dz2     :     0.006805  d :     0.038322
      dxz     :     0.004197
      dyz     :     0.009018
      dx2y2   :     0.008226
      dxy     :     0.010076

  3 C s       :     3.213116  s :     3.213116
      pz      :     1.080869  p :     2.977454
      px      :     0.911773
      py      :     0.984812
      dz2     :     0.006901  d :     0.038839
      dxz     :     0.004360
      dyz     :     0.008954
      dx2y2   :     0.008391
      dxy     :     0.010232

  4 C s       :     3.323967  s :     3.323967
      pz      :     1.078298  p :     3.113505
      px      :     1.017004
      py      :     1.018203
      dz2     :     0.005621  d :     0.028523
      dxz     :     0.002035
      dyz     :     0.007660
      dx2y2   :     0.005966
      dxy     :     0.007241

  5 H s       :     0.841721  s :     0.841721
      pz      :     0.009691  p :     0.017933
      px      :     0.003522
      py      :     0.004720

  6 H s       :     0.841714  s :     0.841714
      pz      :     0.006486  p :     0.017932
      px      :     0.003830
      py      :     0.007617

  7 H s       :     0.837332  s :     0.837332
      pz      :     0.003698  p :     0.017965
      px      :     0.007577
      py      :     0.006690

  8 H s       :     0.847774  s :     0.847774
      pz      :     0.009603  p :     0.017692
      px      :     0.003385
      py      :     0.004703

  9 H s       :     0.847805  s :     0.847805
      pz      :     0.006415  p :     0.017691
      px      :     0.003532
      py      :     0.007745

 10 H s       :     0.848782  s :     0.848782
      pz      :     0.006378  p :     0.017679
      px      :     0.003492
      py      :     0.007810

 11 H s       :     0.848762  s :     0.848762
      pz      :     0.009609  p :     0.017680
      px      :     0.003316
      py      :     0.004756

 12 H s       :     0.847747  s :     0.847747
      pz      :     0.009624  p :     0.017691
      px      :     0.003367
      py      :     0.004700

 13 H s       :     0.847784  s :     0.847784
      pz      :     0.006397  p :     0.017691
      px      :     0.003569
      py      :     0.007726

 14 H s       :     0.841734  s :     0.841734
      pz      :     0.006572  p :     0.017932
      px      :     0.003614
      py      :     0.007746

 15 H s       :     0.841733  s :     0.841733
      pz      :     0.009582  p :     0.017933
      px      :     0.003584
      py      :     0.004767

 16 H s       :     0.837329  s :     0.837329
      pz      :     0.003930  p :     0.017965
      px      :     0.009135
      py      :     0.004900



                     *******************************
                     * LOEWDIN POPULATION ANALYSIS *
                     *******************************

----------------------
LOEWDIN ATOMIC CHARGES
----------------------
   0 C :   -0.428708
   1 C :   -0.319426
   2 C :   -0.313750
   3 C :   -0.319436
   4 C :   -0.428701
   5 H :    0.149645
   6 H :    0.149651
   7 H :    0.149752
   8 H :    0.151216
   9 H :    0.151221
  10 H :    0.153529
  11 H :    0.153523
  12 H :    0.151219
  13 H :    0.151222
  14 H :    0.149649
  15 H :    0.149645
  16 H :    0.149751

-------------------------------
LOEWDIN REDUCED ORBITAL CHARGES
-------------------------------
  0 C s       :     2.977781  s :     2.977781
      pz      :     1.152257  p :     3.386510
      px      :     1.092660
      py      :     1.141592
      dz2     :     0.014591  d :     0.064417
      dxz     :     0.005319
      dyz     :     0.015473
      dx2y2   :     0.009993
      dxy     :     0.019041

  1 C s       :     2.940234  s :     2.940234
      pz      :     1.140876  p :     3.297530
      px      :     1.053696
      py      :     1.102959
      dz2     :     0.015776  d :     0.081662
      dxz     :     0.007608
      dyz     :     0.020200
      dx2y2   :     0.016460
      dxy     :     0.021618

  2 C s       :     2.941555  s :     2.941555
      pz      :     1.140154  p :     3.291423
      px      :     1.050162
      py      :     1.101108
      dz2     :     0.015652  d :     0.080772
      dxz     :     0.007385
      dyz     :     0.020237
      dx2y2   :     0.016128
      dxy     :     0.021370

  3 C s       :     2.940235  s :     2.940235
      pz      :     1.140824  p :     3.297539
      px      :     1.053337
      py      :     1.103377
      dz2     :     0.015837  d :     0.081662
      dxz     :     0.007639
      dyz     :     0.020084
      dx2y2   :     0.016438
      dxy     :     0.021664

  4 C s       :     2.977781  s :     2.977781
      pz      :     1.154627  p :     3.386503
      px      :     1.108582
      py      :     1.123293
      dz2     :     0.013631  d :     0.064417
      dxz     :     0.003835
      dyz     :     0.017927
      dx2y2   :     0.012485
      dxy     :     0.016538

  5 H s       :     0.807868  s :     0.807868
      pz      :     0.024099  p :     0.042487
      px      :     0.007741
      py      :     0.010647

  6 H s       :     0.807861  s :     0.807861
      pz      :     0.015681  p :     0.042488
      px      :     0.008445
      py      :     0.018362

  7 H s       :     0.807584  s :     0.807584
      pz      :     0.007971  p :     0.042663
      px      :     0.018297
      py      :     0.016396

  8 H s       :     0.806355  s :     0.806355
      pz      :     0.023745  p :     0.042429
      px      :     0.007813
      py      :     0.010872

  9 H s       :     0.806349  s :     0.806349
      pz      :     0.015594  p :     0.042430
      px      :     0.008212
      py      :     0.018624

 10 H s       :     0.803879  s :     0.803879
      pz      :     0.015514  p :     0.042592
      px      :     0.008232
      py      :     0.018845

 11 H s       :     0.803886  s :     0.803886
      pz      :     0.023802  p :     0.042591
      px      :     0.007782
      py      :     0.011007

 12 H s       :     0.806352  s :     0.806352
      pz      :     0.023780  p :     0.042430
      px      :     0.007790
      py      :     0.010860

 13 H s       :     0.806348  s :     0.806348
      pz      :     0.015565  p :     0.042430
      px      :     0.008279
      py      :     0.018585

 14 H s       :     0.807864  s :     0.807864
      pz      :     0.015835  p :     0.042488
      px      :     0.008019
      py      :     0.018634

 15 H s       :     0.807868  s :     0.807868
      pz      :     0.023894  p :     0.042487
      px      :     0.007828
      py      :     0.010766

 16 H s       :     0.807586  s :     0.807586
      pz      :     0.008587  p :     0.042663
      px      :     0.022441
      py      :     0.011635



                      *****************************
                      * MAYER POPULATION ANALYSIS *
                      *****************************

  NA   - Mulliken gross atomic population
  ZA   - Total nuclear charge
  QA   - Mulliken gross atomic charge
  VA   - Mayer's total valence
  BVA  - Mayer's bonded valence
  FA   - Mayer's free valence

  ATOM       NA         ZA         QA         VA         BVA        FA
  0 C      6.4661     6.0000    -0.4661     3.7875     3.7875     0.0000
  1 C      6.2292     6.0000    -0.2292     3.6464     3.6464     0.0000
  2 C      6.2653     6.0000    -0.2653     3.6571     3.6571     0.0000
  3 C      6.2294     6.0000    -0.2294     3.6464     3.6464     0.0000
  4 C      6.4660     6.0000    -0.4660     3.7876     3.7876    -0.0000
  5 H      0.8597     1.0000     0.1403     0.9654     0.9654     0.0000
  6 H      0.8596     1.0000     0.1404     0.9654     0.9654    -0.0000
  7 H      0.8553     1.0000     0.1447     0.9630     0.9630     0.0000
  8 H      0.8655     1.0000     0.1345     0.9633     0.9633     0.0000
  9 H      0.8655     1.0000     0.1345     0.9634     0.9634    -0.0000
 10 H      0.8665     1.0000     0.1335     0.9660     0.9660     0.0000
 11 H      0.8664     1.0000     0.1336     0.9659     0.9659     0.0000
 12 H      0.8654     1.0000     0.1346     0.9633     0.9633     0.0000
 13 H      0.8655     1.0000     0.1345     0.9633     0.9633     0.0000
 14 H      0.8597     1.0000     0.1403     0.9654     0.9654    -0.0000
 15 H      0.8597     1.0000     0.1403     0.9654     0.9654     0.0000
 16 H      0.8553     1.0000     0.1447     0.9630     0.9630     0.0000

  Mayer bond orders larger than 0.100000
B(  0-C ,  1-C ) :   0.9009 B(  0-C ,  5-H ) :   0.9827 B(  0-C ,  6-H ) :   0.9827 
B(  0-C ,  7-H ) :   0.9763 B(  1-C ,  2-C ) :   0.9209 B(  1-C ,  8-H ) :   0.9742 
B(  1-C ,  9-H ) :   0.9741 B(  2-C ,  3-C ) :   0.9208 B(  2-C , 10-H ) :   0.9771 
B(  2-C , 11-H ) :   0.9773 B(  3-C ,  4-C ) :   0.9010 B(  3-C , 12-H ) :   0.9742 
B(  3-C , 13-H ) :   0.9741 B(  4-C , 14-H ) :   0.9826 B(  4-C , 15-H ) :   0.9827 
B(  4-C , 16-H ) :   0.9763 

-------
TIMINGS
-------

Total SCF time: 0 days 0 hours 0 min 1 sec 

Total time                  ....       1.212 sec
Sum of individual times     ....       1.102 sec  ( 90.9%)

SCF preparation             ....       0.058 sec  (  4.8%)
Fock matrix formation       ....       0.942 sec  ( 77.7%)
  Startup                   ....       0.003 sec  (  0.3% of F)
  Split-RI-J                ....       0.127 sec  ( 13.5% of F)
  XC integration            ....       0.855 sec  ( 90.8% of F)
    XC Preparation          ....       0.000 sec  (  0.0% of XC)
    Basis function eval.    ....       0.122 sec  ( 14.3% of XC)
    Density eval.           ....       0.219 sec  ( 25.7% of XC)
    XC-Functional eval.     ....       0.095 sec  ( 11.1% of XC)
    XC-Potential eval.      ....       0.247 sec  ( 28.8% of XC)
Diagonalization             ....       0.000 sec  (  0.0%)
Density matrix formation    ....       0.013 sec  (  1.1%)
Total Energy calculation    ....       0.007 sec  (  0.6%)
Population analysis         ....       0.007 sec  (  0.5%)
Orbital Transformation      ....       0.009 sec  (  0.8%)
Orbital Orthonormalization  ....       0.000 sec  (  0.0%)
DIIS solution               ....       0.045 sec  (  3.7%)
SOSCF solution              ....       0.022 sec  (  1.8%)
Finished LeanSCF after   1.2 sec

Maximum memory used throughout the entire LEANSCF-calculation: 8.7 MB
Authorization required, but no authorization protocol specified


           ************************************************************
           *        Program running with 8 parallel MPI-processes     *
           *              working on a common directory               *
           ************************************************************

------------------------------------------------------------------------------
                         ORCA PROPERTY INTEGRAL CALCULATIONS
------------------------------------------------------------------------------

GBWName                                   ... pentane_TT.gbw
Number of atoms                           ...     17
Number of basis functions                 ...    155
Max core memory                           ...   2813 MB

Dipole integrals                          ... YES
Quadrupole integrals                      ...  NO
Linear momentum integrals                 ...  NO
Angular momentum integrals                ...  NO
Higher moments length integrals           ...  NO
Higher moments velocity integrals         ...  NO
Kinetic energy integrals                  ...  NO
GIAO right hand sides                     ...  NO
GIAO dipole derivative integrals          ...  NO
SOC integrals                             ...  NO
EPR diamagnetic integrals (GIAO)          ...  NO
EPR gauge integrals                       ...  NO
Field gradient integrals                  ...  NO (   0 nuclei)
Spin-dipole/Fermi contact integrals       ...  NO (   0 nuclei)
Contact density integrals                 ...  NO (   0 nuclei)
Nucleus-orbit integrals                   ...  NO (   0 nuclei)
Geometric perturbations                   ...  NO (  17 nuclei)

Choice of electric origin   ... Center of mass
Position of electric origin ... ( -0.0067, -0.0546, -0.4072) 
Choice of magnetic origin   ... GIAO
Position of magnetic origin ... (  0.0000,  0.0000,  0.0000) 

Calculating integrals                     ... Electric Dipole (Length)     done (  0.0 sec)

Property integrals calculated in   0.0 sec

Maximum memory used throughout the entire PROPINT-calculation: 8.1 MB


-------------------------------------------------------------------------------
                          DFT DISPERSION CORRECTION                            
                                                                               
                                DFTD4 V3.4.0                                   
-------------------------------------------------------------------------------
The R2SCAN3C composite method is recognized
Using three-body term ABC
Active option DFTDOPT                   ...         5   

-------------------------   ----------------
Dispersion correction           -0.003563064
-------------------------   ----------------

------------------   -----------------
gCP correction             0.007764813
------------------   -----------------

-------------------------   --------------------
FINAL SINGLE POINT ENERGY      -197.691996714484
-------------------------   --------------------

Authorization required, but no authorization protocol specified


           ************************************************************
           *        Program running with 8 parallel MPI-processes     *
           *              working on a common directory               *
           ************************************************************
------------------------------------------------------------------------------
                         ORCA SCF GRADIENT CALCULATION
------------------------------------------------------------------------------

Nuc. rep. gradient        (SHARK) ... done (  0.0 sec)
HCore & Overlap gradient  (SHARK) ... done (  0.0 sec)
Split-RIJ-J gradient      (SHARK) ... done (  0.1 sec)
XC gradient                       ... done (  0.2 sec)
Dispersion correction             ... done (  0.0 sec)

-------------------
DISPERSION GRADIENT
-------------------

   1   C   :    0.000074212    0.000003901    0.000008871
   2   C   :    0.000045340   -0.000028313   -0.000001622
   3   C   :    0.000001579    0.000012886    0.000003126
   4   C   :   -0.000050623   -0.000014803   -0.000008837
   5   C   :   -0.000070755    0.000024311   -0.000002028
   6   H   :    0.000028896    0.000002309    0.000009082
   7   H   :    0.000029996    0.000004658   -0.000001154
   8   H   :    0.000026529   -0.000004053    0.000001922
   9   H   :    0.000020498   -0.000012141   -0.000007881
  10   H   :    0.000019024   -0.000015288    0.000005836
  11   H   :    0.000001842    0.000009704   -0.000006334
  12   H   :    0.000000073    0.000005928    0.000010126
  13   H   :   -0.000021658   -0.000006206   -0.000011050
  14   H   :   -0.000023132   -0.000009353    0.000002667
  15   H   :   -0.000027058    0.000012690   -0.000005444
  16   H   :   -0.000028158    0.000010342    0.000004793
  17   H   :   -0.000026606    0.000003428   -0.000002073

Difference to translation invariance:
           :    0.0000000000   -0.0000000000   -0.0000000000

Difference to rotation invariance:
           :    0.0000000000    0.0000000000   -0.0000000000

Norm of the Dispersion gradient    ...    0.0001582223
RMS gradient                       ...    0.0000221556
MAX gradient                       ...    0.0000742124
gCP correction                   ... done

------------------
CARTESIAN GRADIENT
------------------

   1   C   :   -0.004131426    0.003432305    0.000354759
   2   C   :   -0.002068785   -0.007184081   -0.001840347
   3   C   :    0.001503667    0.012435587    0.003010302
   4   C   :    0.000317183   -0.007474331   -0.001688686
   5   C   :    0.004797229    0.002213654    0.000995712
   6   H   :   -0.000565478   -0.000783275   -0.000248111
   7   H   :   -0.000547952   -0.000788391   -0.000220609
   8   H   :   -0.002329272   -0.001418081   -0.000583118
   9   H   :    0.001683554    0.001158078    0.000766792
  10   H   :    0.001729247    0.001343042    0.000168933
  11   H   :   -0.000171443   -0.001389896    0.000421090
  12   H   :   -0.000093183   -0.001012967   -0.001004123
  13   H   :   -0.001369373    0.001584122    0.000542367
  14   H   :   -0.001378105    0.001757042   -0.000076250
  15   H   :    0.000351183   -0.000940664   -0.000165398
  16   H   :    0.000364799   -0.000910324   -0.000182131
  17   H   :    0.001908154   -0.002021820   -0.000251181

Difference to translation invariance:
           :   -0.0000000000   -0.0000000000    0.0000000000

Difference to rotation invariance:
           :   -0.0002578180   -0.0004735281   -0.0002964940

Norm of the Cartesian gradient     ...    0.0196200296
RMS gradient                       ...    0.0027473537
MAX gradient                       ...    0.0124355872

-------
TIMINGS
-------

Total SCF gradient time     ....        0.316 sec

Densities                   ....       0.000 sec  (  0.1%)
One electron gradient       ....       0.012 sec  (  3.9%)
RI-J Coulomb gradient       ....       0.057 sec  ( 18.0%)
XC gradient                 ....       0.225 sec  ( 71.2%)

Maximum memory used throughout the entire SCFGRAD-calculation: 27.8 MB
------------------------------------------------------------------------------
                         ORCA GEOMETRY RELAXATION STEP
------------------------------------------------------------------------------

Reading the OPT-File                    .... done
Getting information on internals        .... done
Copying old internal coords+grads       .... done
Making the new internal coordinates     .... (2022 redundants) done
Validating the new internal coordinates .... (2022 redundants) done
Calculating the B-matrix                .... done
Calculating the G,G- and P matrices     .... done
Transforming gradient to internals      .... done
Projecting the internal gradient        .... done
Number of atoms                         ....  17
Number of internal coordinates          ....  70
Current Energy                          ....  -197.691996714 Eh
Current gradient norm                   ....     0.019620030 Eh/bohr
Maximum allowed component of the step   ....  0.300
Current trust radius                    ....  0.300
Evaluating the initial hessian          ....  (Almloef) done
Projecting the Hessian                  .... done
Forming the augmented Hessian           .... done
Diagonalizing the augmented Hessian     .... done
Last element of RFO vector              ....  0.997709660
Lowest eigenvalues of augmented Hessian:
 -0.001200894  0.011263739  0.011263781  0.011916032  0.011916097
Length of the computed step             ....  0.067797236
The final length of the internal step   ....  0.067797236
Converting the step to Cartesian space:
 Initial RMS(Int)=    0.0081033196
Transforming coordinates:
 Iter   0:  RMS(Cart)=    0.0236037866 RMS(Int)=    1.2998400173
done
Storing new coordinates                 .... done

                                .--------------------.
          ----------------------|Geometry convergence|-------------------------
          Item                value                   Tolerance       Converged
          ---------------------------------------------------------------------
          RMS gradient        0.0022996483            0.0001000000      NO
          MAX gradient        0.0084912508            0.0003000000      NO
          RMS step            0.0081033196            0.0020000000      NO
          MAX step            0.0269933185            0.0040000000      NO
          -------------------------------------------------------------------------
          ........................................................
          Max(Bonds)      0.0090      Max(Angles)    1.55
          Max(Dihed)        0.84      Max(Improp)    0.00
          ---------------------------------------------------------------------

The optimization has not yet converged - more geometry cycles are needed


    ---------------------------------------------------------------------------
                         Redundant Internal Coordinates
                            (Angstroem and degrees)

        Definition                    Value    dE/dq     Step     New-Value
    ----------------------------------------------------------------------------
     1. B(C   1,C   0)                1.5204 -0.006633  0.0090    1.5294   
     2. B(C   2,C   1)                1.5285 -0.001764  0.0025    1.5309   
     3. B(C   3,C   2)                1.5285 -0.001748  0.0025    1.5309   
     4. B(C   4,C   3)                1.5204 -0.006638  0.0090    1.5294   
     5. B(H   5,C   0)                1.0947 -0.000543  0.0008    1.0955   
     6. B(H   6,C   0)                1.0947 -0.000536  0.0008    1.0955   
     7. B(H   7,C   0)                1.0945 -0.000712  0.0011    1.0956   
     8. B(H   8,C   1)                1.0962 -0.001122  0.0017    1.0979   
     9. B(H   9,C   1)                1.0962 -0.001165  0.0017    1.0980   
    10. B(H  10,C   2)                1.0969 -0.001343  0.0020    1.0989   
    11. B(H  11,C   2)                1.0969 -0.001320  0.0020    1.0989   
    12. B(H  12,C   3)                1.0962 -0.001132  0.0017    1.0979   
    13. B(H  13,C   3)                1.0962 -0.001145  0.0017    1.0979   
    14. B(H  14,C   4)                1.0947 -0.000566  0.0008    1.0955   
    15. B(H  15,C   4)                1.0947 -0.000533  0.0008    1.0955   
    16. B(H  16,C   4)                1.0945 -0.000707  0.0011    1.0955   
    17. A(C   1,C   0,H   7)          110.26 -0.003894    0.78    111.04   
    18. A(H   5,C   0,H   6)          108.31  0.001070   -0.38    107.93   
    19. A(C   1,C   0,H   5)          111.00 -0.000120   -0.01    110.99   
    20. A(C   1,C   0,H   6)          111.00 -0.000094   -0.01    110.99   
    21. A(H   5,C   0,H   7)          108.08  0.001617   -0.21    107.87   
    22. A(H   6,C   0,H   7)          108.08  0.001595   -0.21    107.87   
    23. A(C   0,C   1,C   2)          111.50 -0.005638    1.11    112.61   
    24. A(C   0,C   1,H   8)          109.14  0.000434    0.15    109.30   
    25. A(H   8,C   1,H   9)          107.22  0.000345   -0.54    106.68   
    26. A(C   2,C   1,H   8)          109.87  0.002496   -0.48    109.39   
    27. A(C   0,C   1,H   9)          109.14  0.000424    0.16    109.30   
    28. A(C   2,C   1,H   9)          109.87  0.002157   -0.46    109.40   
    29. A(C   1,C   2,H  10)          109.58  0.002611   -0.29    109.29   
    30. A(C   1,C   2,C   3)          111.33 -0.008491    1.55    112.87   
    31. A(C   3,C   2,H  11)          109.58  0.000975   -0.26    109.32   
    32. A(C   1,C   2,H  11)          109.58  0.002587   -0.29    109.29   
    33. A(C   3,C   2,H  10)          109.58  0.002307   -0.30    109.28   
    34. A(H  10,C   2,H  11)          107.10  0.000377   -0.49    106.62   
    35. A(C   2,C   3,C   4)          111.50 -0.006161    1.11    112.61   
    36. A(H  12,C   3,H  13)          107.22  0.001413   -0.55    106.67   
    37. A(C   4,C   3,H  13)          109.14 -0.001639    0.21    109.35   
    38. A(C   2,C   3,H  13)          109.87  0.003058   -0.48    109.39   
    39. A(C   4,C   3,H  12)          109.14  0.000426    0.14    109.29   
    40. A(C   2,C   3,H  12)          109.87  0.003161   -0.49    109.37   
    41. A(H  15,C   4,H  16)          108.08  0.001679   -0.21    107.87   
    42. A(H  14,C   4,H  16)          108.08  0.001722   -0.22    107.86   
    43. A(C   3,C   4,H  16)          110.26 -0.003814    0.78    111.04   
    44. A(H  14,C   4,H  15)          108.31  0.000924   -0.37    107.94   
    45. A(C   3,C   4,H  15)          111.00 -0.000194   -0.00    111.00   
    46. A(C   3,C   4,H  14)          111.00 -0.000140   -0.01    110.99   
    47. D(H   8,C   1,C   0,H   7)    -58.44 -0.000104    0.07    -58.37   
    48. D(H   8,C   1,C   0,H   5)   -178.18  0.000495   -0.17   -178.35   
    49. D(C   2,C   1,C   0,H   7)   -180.00  0.000129   -0.15   -180.15   
    50. D(C   2,C   1,C   0,H   5)     60.26  0.000728   -0.39     59.87   
    51. D(H   8,C   1,C   0,H   6)     61.30 -0.000715    0.32     61.62   
    52. D(C   2,C   1,C   0,H   6)    -60.26 -0.000482    0.10    -60.16   
    53. D(C   3,C   2,C   1,C   0)    180.00 -0.000370    0.22    180.22   
    54. D(H  10,C   2,C   1,H   9)    179.76 -0.001194    0.40    180.16   
    55. D(H  10,C   2,C   1,H   8)    -62.51  0.002009   -0.82    -63.33   
    56. D(H  10,C   2,C   1,C   0)     58.62  0.000529   -0.22     58.40   
    57. D(C   3,C   2,C   1,H   9)    -58.86 -0.002093    0.84    -58.02   
    58. D(C   3,C   2,C   1,H   8)     58.86  0.001110   -0.38     58.48   
    59. D(C   4,C   3,C   2,H  11)     58.62  0.002027   -0.73     57.89   
    60. D(C   4,C   3,C   2,H  10)    -58.62 -0.000344    0.19    -58.43   
    61. D(C   4,C   3,C   2,C   1)    180.00  0.000378   -0.26    179.74   
    62. D(H  12,C   3,C   2,H  11)    179.76  0.000643   -0.15    179.61   
    63. D(H  12,C   3,C   2,H  10)     62.51 -0.001728    0.77     63.28   
    64. D(H  12,C   3,C   2,C   1)    -58.86 -0.001006    0.32    -58.54   
    65. D(H  15,C   4,C   3,H  13)     61.30 -0.001224    0.45     61.74   
    66. D(H  15,C   4,C   3,H  12)    178.18 -0.000214   -0.01    178.17   
    67. D(H  15,C   4,C   3,C   2)    -60.26  0.000043    0.19    -60.07   
    68. D(H  14,C   4,C   3,H  13)   -178.18 -0.000280   -0.03   -178.21   
    69. D(H  14,C   4,C   3,H  12)    -61.29  0.000731   -0.49    -61.78   
    70. D(H  14,C   4,C   3,C   2)     60.26  0.000988   -0.29     59.97   
    ----------------------------------------------------------------------------

Geometry step timings:
Preparation and reading OPT file:      0.000 s ( 1.642 %)
Internal coordinates            :      0.000 s ( 1.556 %)
B/P matrices and projection     :      0.000 s (33.881 %)
Hessian update/contruction      :      0.000 s (12.619 %)
Making the step                 :      0.000 s (23.941 %)
Converting the step to Cartesian:      0.000 s ( 3.284 %)
Storing new data                :      0.000 s ( 2.074 %)
Checking convergence            :      0.000 s ( 2.074 %)
Final printing                  :      0.000 s (18.842 %)
Total time                      :      0.001 s
Authorization required, but no authorization protocol specified

Time for energy+gradient        :      2.918 s
Time for complete geometry iter :      3.122 s

         *************************************************************
         *                GEOMETRY OPTIMIZATION CYCLE   2            *
         *************************************************************
---------------------------------
CARTESIAN COORDINATES (ANGSTROEM)
---------------------------------
  C      2.549689   -0.063722    0.053043
  C      1.194704   -0.708111   -0.243441
  C      0.035346    0.286604   -0.142563
  C     -1.324721   -0.353342   -0.433013
  C     -2.478973    0.644184   -0.324437
  H      2.571524    0.356468    1.064514
  H      2.761983    0.746220   -0.653365
  H      3.359494   -0.797600   -0.023608
  H      1.213274   -1.145054   -1.250488
  H      1.026038   -1.537016    0.456571
  H      0.204591    1.113856   -0.845833
  H      0.022035    0.727591    0.863844
  H     -1.314696   -0.788109   -1.441138
  H     -1.493838   -1.182873    0.266100
  H     -2.353154    1.468767   -1.034662
  H     -2.534882    1.071812    0.682580
  H     -3.438414    0.160320   -0.537910

----------------------------
CARTESIAN COORDINATES (A.U.)
----------------------------
  NO LB      ZA    FRAG     MASS         X           Y           Z
   0 C     6.0000    0    12.011    4.818214   -0.120418    0.100238
   1 C     6.0000    0    12.011    2.257663   -1.338136   -0.460036
   2 C     6.0000    0    12.011    0.066795    0.541603   -0.269405
   3 C     6.0000    0    12.011   -2.503360   -0.667719   -0.818276
   4 C     6.0000    0    12.011   -4.684581    1.217332   -0.613098
   5 H     1.0000    0     1.008    4.859476    0.673627    2.011641
   6 H     1.0000    0     1.008    5.219391    1.410151   -1.234680
   7 H     1.0000    0     1.008    6.348524   -1.507246   -0.044612
   8 H     1.0000    0     1.008    2.292756   -2.163838   -2.363080
   9 H     1.0000    0     1.008    1.938932   -2.904538    0.862795
  10 H     1.0000    0     1.008    0.386621    2.104883   -1.598394
  11 H     1.0000    0     1.008    0.041640    1.374947    1.632428
  12 H     1.0000    0     1.008   -2.484416   -1.489309   -2.723356
  13 H     1.0000    0     1.008   -2.822944   -2.235307    0.502856
  14 H     1.0000    0     1.008   -4.446818    2.775567   -1.955227
  15 H     1.0000    0     1.008   -4.790232    2.025432    1.289889
  16 H     1.0000    0     1.008   -6.497660    0.302962   -1.016503

--------------------------------
INTERNAL COORDINATES (ANGSTROEM)
--------------------------------
 C      0   0   0     0.000000000000     0.00000000     0.00000000
 C      1   0   0     1.529419800642     0.00000000     0.00000000
 C      2   1   0     1.530929096271   112.60578989     0.00000000
 C      3   2   1     1.530906678379   112.87205056   180.21939273
 C      4   3   2     1.529426247762   112.60451351   179.74350470
 H      1   2   3     1.095495377730   110.99270712    59.86776857
 H      1   2   3     1.095485051472   110.98914440   299.83647899
 H      1   2   3     1.095552822856   111.04316920   179.84946073
 H      2   1   3     1.097910698147   109.29937929   121.77998832
 H      2   1   3     1.097974043865   109.30406685   238.18993307
 H      3   2   1     1.098898811934   109.28861758    58.40305656
 H      3   2   1     1.098863520490   109.28535341   302.08485030
 H      4   3   2     1.097924562132   109.36747509   301.45602438
 H      4   3   2     1.097944450973   109.38174560    57.94537207
 H      5   4   3     1.095529774072   110.99068446    59.96959092
 H      5   4   3     1.095479519207   111.00040449   299.92761888
 H      5   4   3     1.095546004132   111.04124634   179.93989199

---------------------------
INTERNAL COORDINATES (A.U.)
---------------------------
 C      0   0   0     0.000000000000     0.00000000     0.00000000
[...]
     48      -0.319250  -0.325589   0.000679  -0.001175  -0.002033   0.015472
     49      -0.166802  -0.169636   0.000382   0.000263   0.000162   0.005599
     50      -0.073373  -0.074714  -0.000137  -0.005363  -0.007393   0.015439
                 48         49         50    
      0       0.005063  -0.010258  -0.044453
      1       0.012767   0.017818   0.076571
      2      -0.051604   0.003210   0.014475
      3       0.002011   0.000133   0.000399
      4       0.004377   0.000912   0.006457
      5      -0.018733   0.000198   0.001933
      6       0.001274   0.000237   0.000242
      7       0.002789  -0.000431   0.000622
      8      -0.011882  -0.000270   0.000297
      9       0.002455  -0.001014   0.000405
     10       0.005415  -0.006106   0.001969
     11      -0.022491  -0.002305   0.000692
     12       0.009208  -0.060815   0.013952
     13       0.017140  -0.061447   0.014036
     14      -0.065688  -0.024173   0.005516
     15       0.005970  -0.002803  -0.012909
     16       0.159798  -0.029119  -0.127326
     17       0.368867  -0.079415  -0.347193
     18      -0.075292  -0.016866  -0.072333
     19      -0.308612  -0.057359  -0.242752
     20       0.261000   0.054450   0.231121
     21       0.008638   0.141524   0.613551
     22      -0.004146  -0.126619  -0.547902
     23      -0.011649  -0.013450  -0.057950
     24      -0.001721  -0.000809   0.000220
     25       0.057515  -0.002538  -0.023989
     26       0.129855  -0.006306  -0.055479
     27      -0.021988  -0.001932  -0.008913
     28      -0.108860  -0.005380  -0.041247
     29       0.090442   0.004569   0.034825
     30      -0.014876   0.003216  -0.000333
     31      -0.071428   0.004412  -0.008644
     32       0.058165  -0.004037   0.007559
     33      -0.000500   0.002279   0.001667
     34       0.037974   0.003255  -0.005329
     35       0.083459   0.008735  -0.012146
     36      -0.002366  -0.001696  -0.000285
     37       0.068206   0.024577  -0.008073
     38       0.154276   0.056262  -0.018762
     39      -0.026176   0.006938  -0.003236
     40      -0.131331   0.038022  -0.013197
     41       0.109349  -0.032138   0.011153
     42      -0.067386   0.031255  -0.006995
     43      -0.403293   0.242324  -0.055478
     44       0.338176  -0.227962   0.052236
     45      -0.020754  -0.029417   0.006900
     46       0.206291   0.137577  -0.031404
     47       0.467847   0.356511  -0.081397
     48      -0.022005   0.722872  -0.166347
     49      -0.008395   0.357756  -0.082113
     50      -0.019384   0.160908  -0.036985


-----------
IR SPECTRUM
-----------

 Mode   freq       eps      Int      T**2         TX        TY        TZ
       cm**-1   L/(mol*cm) km/mol    a.u.
----------------------------------------------------------------------------
  6:    111.89   0.000000    0.00  0.000000  (-0.000121 -0.000064  0.000105)
  7:    116.86   0.000001    0.00  0.000002  (-0.000258 -0.000451  0.001483)
  8:    183.27   0.000000    0.00  0.000000  ( 0.000023  0.000419  0.000120)
  9:    250.95   0.000000    0.00  0.000000  ( 0.000042  0.000034  0.000432)
 10:    259.98   0.000000    0.00  0.000000  (-0.000044  0.000002 -0.000027)
 11:    403.29   0.000000    0.00  0.000000  (-0.000063 -0.000429 -0.000087)
 12:    404.62   0.000000    0.00  0.000000  (-0.000023 -0.000005 -0.000041)
 13:    740.26   0.001073    5.42  0.000453  (-0.002285 -0.004809  0.020595)
 14:    771.49   0.000000    0.00  0.000000  (-0.000029  0.000012 -0.000010)
 15:    870.67   0.000361    1.83  0.000130  (-0.001229 -0.003021  0.010903)
 16:    876.29   0.000274    1.38  0.000097  ( 0.001138  0.009403  0.002781)
 17:    928.75   0.000733    3.70  0.000246  (-0.015500  0.002189 -0.001115)
 18:    993.64   0.000000    0.00  0.000000  (-0.000118  0.000143 -0.000215)
 19:   1035.26   0.000410    2.07  0.000124  (-0.010978  0.001555 -0.000773)
 20:   1043.60   0.000113    0.57  0.000034  ( 0.000696  0.005621  0.001348)
 21:   1073.39   0.000394    1.99  0.000115  ( 0.010571 -0.001500  0.000765)
 22:   1164.95   0.000281    1.42  0.000075  (-0.001025 -0.008372 -0.002018)
 23:   1206.77   0.000049    0.25  0.000013  ( 0.000379  0.000818 -0.003427)
 24:   1266.84   0.000000    0.00  0.000000  (-0.000073  0.000086 -0.000104)
 25:   1286.77   0.000259    1.31  0.000063  ( 0.007814 -0.001127  0.000632)
 26:   1327.68   0.000119    0.60  0.000028  (-0.000542 -0.001265  0.005111)
 27:   1332.56   0.000000    0.00  0.000000  (-0.000010  0.000036 -0.000070)
 28:   1362.07   0.000005    0.02  0.000001  (-0.000148 -0.000996 -0.000256)
 29:   1389.95   0.000583    2.95  0.000131  (-0.011291  0.001642 -0.000835)
 30:   1404.23   0.000480    2.43  0.000107  (-0.010116  0.001992 -0.000661)
 31:   1405.53   0.001055    5.33  0.000234  ( 0.002315  0.014708  0.003551)
 32:   1478.61   0.000000    0.00  0.000000  (-0.000027 -0.000214  0.000029)
 33:   1480.81   0.000195    0.98  0.000041  ( 0.006336 -0.000866  0.000341)
 34:   1490.43   0.000002    0.01  0.000000  ( 0.000165  0.000328 -0.000567)
 35:   1492.88   0.004090   20.67  0.000855  ( 0.003044  0.006290 -0.028391)
 36:   1493.98   0.000001    0.00  0.000000  (-0.000311  0.000154 -0.000211)
 37:   1498.06   0.000622    3.14  0.000129  (-0.011206  0.001751 -0.000917)
 38:   1503.95   0.002669   13.49  0.000554  (-0.002845 -0.022763 -0.005249)
 39:   2981.96   0.000848    4.29  0.000089  ( 0.001038  0.009099  0.002212)
 40:   2994.40   0.000016    0.08  0.000002  (-0.001220  0.000351 -0.000150)
 41:   3001.79   0.009135   46.17  0.000950  (-0.003604 -0.029738 -0.007235)
 42:   3005.76   0.008150   41.19  0.000846  ( 0.028786 -0.003541  0.002245)
 43:   3006.99   0.009205   46.52  0.000955  (-0.002892 -0.029919 -0.007194)
 44:   3015.75   0.000076    0.39  0.000008  ( 0.000387  0.000710 -0.002692)
 45:   3035.22   0.000000    0.00  0.000000  ( 0.000070 -0.000150 -0.000129)
 46:   3051.11   0.007047   35.61  0.000721  (-0.002777 -0.005777  0.026070)
 47:   3086.38   0.000255    1.29  0.000026  (-0.000145  0.000980 -0.004979)
 48:   3087.68   0.016454   83.15  0.001663  ( 0.004698  0.009688 -0.039332)
 49:   3092.90   0.005227   26.41  0.000527  (-0.019567 -0.010678 -0.005516)
 50:   3093.48   0.006051   30.58  0.000610  (-0.008866  0.022502  0.005046)

* The epsilon (eps) is given for a Dirac delta lineshape.
** The dipole moment derivative (T) already includes vibrational overlap.

The first frequency considered to be a vibration is 6
The total number of vibrations considered is 45


--------------------------
THERMOCHEMISTRY AT 298.15K
--------------------------

Temperature         ...   298.15 K
Pressure            ...     1.00 atm
Total Mass          ...    72.15 AMU
Quasi RRHO          ...     True
Cut-Off Frequency   ...     1.00 cm^-1

Throughout the following assumptions are being made:
  (1) The electronic state is orbitally nondegenerate
  (2) There are no thermally accessible electronically excited states
  (3) Hindered rotations indicated by low frequency modes are not
      treated as such but are treated as vibrations and this may
      cause some error
  (4) All equations used are the standard statistical mechanics
      equations for an ideal gas
  (5) All vibrations are strictly harmonic

freq.     111.89  E(vib)   ...       0.45 
freq.     116.86  E(vib)   ...       0.44 
freq.     183.27  E(vib)   ...       0.37 
freq.     250.95  E(vib)   ...       0.30 
freq.     259.98  E(vib)   ...       0.30 
freq.     403.29  E(vib)   ...       0.19 
freq.     404.62  E(vib)   ...       0.19 
freq.     740.26  E(vib)   ...       0.06 
freq.     771.49  E(vib)   ...       0.05 
freq.     870.67  E(vib)   ...       0.04 
freq.     876.29  E(vib)   ...       0.04 
freq.     928.75  E(vib)   ...       0.03 
freq.     993.64  E(vib)   ...       0.02 
freq.    1035.26  E(vib)   ...       0.02 
freq.    1043.60  E(vib)   ...       0.02 
freq.    1073.39  E(vib)   ...       0.02 
freq.    1164.95  E(vib)   ...       0.01 
freq.    1206.77  E(vib)   ...       0.01 
freq.    1266.84  E(vib)   ...       0.01 
freq.    1286.77  E(vib)   ...       0.01 
freq.    1327.68  E(vib)   ...       0.01 
freq.    1332.56  E(vib)   ...       0.01 
freq.    1362.07  E(vib)   ...       0.01 
freq.    1389.95  E(vib)   ...       0.00 
freq.    1404.23  E(vib)   ...       0.00 
freq.    1405.53  E(vib)   ...       0.00 
freq.    1478.61  E(vib)   ...       0.00 
freq.    1480.81  E(vib)   ...       0.00 
freq.    1490.43  E(vib)   ...       0.00 
freq.    1492.88  E(vib)   ...       0.00 
freq.    1493.98  E(vib)   ...       0.00 
freq.    1498.06  E(vib)   ...       0.00 
freq.    1503.95  E(vib)   ...       0.00 
freq.    2981.96  E(vib)   ...       0.00 
freq.    2994.40  E(vib)   ...       0.00 
freq.    3001.79  E(vib)   ...       0.00 
freq.    3005.76  E(vib)   ...       0.00 
freq.    3006.99  E(vib)   ...       0.00 
freq.    3015.75  E(vib)   ...       0.00 
freq.    3035.22  E(vib)   ...       0.00 
freq.    3051.11  E(vib)   ...       0.00 
freq.    3086.38  E(vib)   ...       0.00 
freq.    3087.68  E(vib)   ...       0.00 
freq.    3092.90  E(vib)   ...       0.00 
freq.    3093.48  E(vib)   ...       0.00 

------------
INNER ENERGY
------------

The inner energy is: U= E(el) + E(ZPE) + E(vib) + E(rot) + E(trans)
    E(el)   - is the total energy from the electronic structure calculation
              = E(kin-el) + E(nuc-el) + E(el-el) + E(nuc-nuc)
    E(ZPE)  - the the zero temperature vibrational energy from the frequency calculation
    E(vib)  - the the finite temperature correction to E(ZPE) due to population
              of excited vibrational states
    E(rot)  - is the rotational thermal energy
    E(trans)- is the translational thermal energy

Summary of contributions to the inner energy U:
Electronic energy                ...   -197.69276001 Eh
Zero point energy                ...      0.15970791 Eh     100.22 kcal/mol
Thermal vibrational correction   ...      0.00419916 Eh       2.64 kcal/mol
Thermal rotational correction    ...      0.00141627 Eh       0.89 kcal/mol
Thermal translational correction ...      0.00141627 Eh       0.89 kcal/mol
-----------------------------------------------------------------------
Total thermal energy                   -197.52602040 Eh


Summary of corrections to the electronic energy:
(perhaps to be used in another calculation)
Total thermal correction                  0.00703170 Eh       4.41 kcal/mol
Non-thermal (ZPE) correction              0.15970791 Eh     100.22 kcal/mol
-----------------------------------------------------------------------
Total correction                          0.16673961 Eh     104.63 kcal/mol


--------
ENTHALPY
--------

The enthalpy is H = U + kB*T
                kB is Boltzmann's constant
Total thermal energy              ...   -197.52602040 Eh 
Thermal Enthalpy correction       ...      0.00094421 Eh       0.59 kcal/mol
-----------------------------------------------------------------------
Total Enthalpy                    ...   -197.52507619 Eh


Note: Only C1 symmetry has been detected, increase convergence thresholds 
      if your molecule has a higher symmetry. Symmetry factor of 1.0 is   
      used for the rotational entropy correction. 
 

Note: Rotational entropy computed according to Herzberg 
Infrared and Raman Spectra, Chapter V,1, Van Nostrand Reinhold, 1945 
Point Group:  C1, Symmetry Number:   1  
Rotational constants in cm-1:     0.566296     0.064847     0.061505 

Vibrational entropy computed according to the QRRHO of S. Grimme
Chem.Eur.J. 2012 18 9955 using a reference frequency of 100.0 cm-1


-------
ENTROPY
-------

The entropy contributions are T*S = T*(S(el)+S(vib)+S(rot)+S(trans))
     S(el)   - electronic entropy
     S(vib)  - vibrational entropy
     S(rot)  - rotational entropy
     S(trans)- translational entropy
The entropies will be listed as multiplied by the temperature to get
units of energy

Electronic entropy                ...      0.00000000 Eh      0.00 kcal/mol
Vibrational entropy               ...      0.00723986 Eh      4.54 kcal/mol
Rotational entropy                ...      0.01238726 Eh      7.77 kcal/mol
Translational entropy             ...      0.01840896 Eh     11.55 kcal/mol
-----------------------------------------------------------------------
Final entropy term                ...      0.03803608 Eh     23.87 kcal/mol

In case the symmetry of your molecule has not been determined correctly
or in case you have a reason to use a different symmetry number we print 
out the resulting rotational entropy values for sn=1,12:

 non-linear molecules -----------------------------------
|  sn= 1 | S(rot)=       0.01238726 Eh      7.77 kcal/mol|
|  sn= 2 | S(rot)=       0.01173280 Eh      7.36 kcal/mol|
|  sn= 3 | S(rot)=       0.01134997 Eh      7.12 kcal/mol|
|  sn= 4 | S(rot)=       0.01107835 Eh      6.95 kcal/mol|
|  sn= 5 | S(rot)=       0.01086766 Eh      6.82 kcal/mol|
|  sn= 6 | S(rot)=       0.01069551 Eh      6.71 kcal/mol|
|  sn= 7 | S(rot)=       0.01054997 Eh      6.62 kcal/mol|
|  sn= 8 | S(rot)=       0.01042389 Eh      6.54 kcal/mol|
|  sn= 9 | S(rot)=       0.01031268 Eh      6.47 kcal/mol|
|  sn=10 | S(rot)=       0.01021320 Eh      6.41 kcal/mol|
|  sn=11 | S(rot)=       0.01012321 Eh      6.35 kcal/mol|
|  sn=12 | S(rot)=       0.01004106 Eh      6.30 kcal/mol|
 linear molecules ---------------------------------------
|  Dinfh | S(rot)=       0.00795879 Eh      4.99 kcal/mol|
|  Cinfv | S(rot)=       0.00861325 Eh      5.40 kcal/mol|
 --------------------------------------------------------


-------------------
GIBBS FREE ENERGY
-------------------

The Gibbs free energy is G = H - T*S

Total enthalpy                    ...   -197.52507619 Eh 
Total entropy correction          ...     -0.03803608 Eh    -23.87 kcal/mol
-----------------------------------------------------------------------
Final Gibbs free energy         ...   -197.56311226 Eh

For completeness - the Gibbs free energy minus the electronic energy
G-E(el)                           ...      0.12964775 Eh     81.36 kcal/mol


Maximum memory used throughout the entire PROP-calculation: 28.1 MB
Authorization required, but no authorization protocol specified

--------------------------------
SUGGESTED CITATIONS FOR THIS RUN
--------------------------------

Below you find a list of papers that are relevant to this ORCA run
We neither can nor want to force you to cite these papers, but we appreciate if you do
You receive ORCA, which is the product of decades of hard work by many enthusiastic individuals, for free
The only thing we kindly ask in return is that you cite our papers,
We deeply appreciate it, if you show your appreciation for ORCA by not just citing the generic ORCA reference.

Please note that relegating all ORCA citations to the supporting information does *not* help us.
SI sections are not indexed - citations you put there will not count into any citation statistics
But we need these citations in order to attract the funding resources that allow us to do what we are doing

Therefore, if you are a happy ORCA user, please consider citing a few of the papers listed below in the main body of your paper

In addition to the list printed below, the program has created the file pentane_TT.bibtex that contains the list in bibtex format
You can import this file easily into all common literature databanks and citation aid programs


List of essential papers. We consider these as the minimum necessary citations

  1. Grimme, S.; Hansen, A.; Ehlert, S.; Mewes, J.
     r2SCAN-3c: A 'Swiss army knife' composite electronic-structure method
     J. Chem. Phys. 2021 154 , 064103
     doi.org/10.1063/5.0040021
  2. Neese, F.
     Software update: the ORCA program system, version 6.0
     WIRES Comput. Molec. Sci. 2025 15(1), e70019
     doi.org/10.1002/wcms.7019

List of papers to cite with high priority. The work reported in these papers was absolutely
necessary for this run to complete.
Our perspective: the developers of density functionals and basis sets usually get cited in chemistry papers
Good! But without the algorithms to do something with them, the functionals or basis sets would not do anything.
Hence, in our opinion, the algorithm design and method developments papers are equally worthy of getting cited

  1. Neese, F.
     An improvement of the resolution of the identity approximation for the formation of the Coulomb matrix
     J. Comp. Chem. 2003 24(14), 1740-1747
     doi.org/10.1002/jcc.10318
  2. Bykov, D.; Petrenko, T.; Izsak, R.; Kossmann, S.; Becker, U.; Valeev, E.; Neese, F.
     Efficient implementation of the analytic second derivatives of Hartree-Fock and hybrid DFT energies: a detailed analysis of different approximations
     Molec. Phys. 2015 113 , 1961-1977
     doi.org/10.1080/00268976.2015.1025114
  3. Caldeweyher, E.; Bannwarth, C.; Grimme, S.
     Extension of the D3 dispersion coefficient model
     J. Chem. Phys. 2017 147 , 034112
     doi.org/10.1063/1.4993215
  4. Lehtola, S.; Steigemann, C.; Oliveira, M.; Marques, M.
     Recent developments in Libxc - A comprehensive library of functionals for density functional theory
     Software X 2018 7 , 
     doi.org/10.1016/j.softx.2017.11.002
  5. Caldeweyher, E.; Ehlert, S.; Hansen, A.; Neugebauer, H.; Spicher, S.; Bannwarth, C.; Grimme, S.
     A generally applicable atomic-charge dependent London dispersion correction
     J. Chem. Phys. 2019 150 , 154122
     doi.org/10.1063/1.5090222
  6. Caldeweyher, E.; Mewes, J.; Ehlert, S.; Grimme, S.
     Extension and evaluation of the D4 London-dispersion model for periodic systems
     Phys. Chem. Chem. Phys. 2020 22(16), 8499-8512
     doi.org/10.1039/D0CP00502A
  7. Neese, F.
     The SHARK Integral Generation and Digestion System
     J. Comp. Chem. 2022 44(3), 381
     doi.org/10.1002/jcc.26942
  8. Wittmann, L.; Gordiy, I.; Friede, M.; Helmich-Paris, B.; Grimme, S.; Hansen, A.; Bursch, M.
     Extension of the D3 and D4 London Dispersion Corrections to the full Actinides Series
     Phys. Chem. Chem. Phys. 2024 26(32), 21379-21394
     doi.org/10.1039/D4CP01514B

List of suggested additional citations. These are papers that are important in the 'surrounding' of 
of this run, or papers that preceded the highly important papers. If you like your results we are grateful for a citation.

  1. Neese, F.
     The ORCA program system
     WIRES Comput. Molec. Sci. 2012 2(1), 73-78
     doi.org/10.1002/wcms.81
  2. Neese, F.
     Software update: the ORCA program system, version 4.0
     WIRES Comput. Molec. Sci. 2018 8(1), 1-6
     doi.org/10.1002/wcms.1327
  3. Neese, F.; Wennmohs, F.; Becker, U.; Riplinger, C.
     The ORCA quantum chemistry program package
     J. Chem. Phys. 2020 152(22), 224108
     doi.org/10.1063/5.0004608
  4. Neese, F.
     Software update: The ORCA program system—Version 5.0
     WIRES Comput. Molec. Sci. 2022 12(1), e1606
     doi.org/10.1002/wcms.1606

List of optional additional citations

  1. Neese, F.
     Approximate second-order SCF convergence for spin unrestricted wavefunctions
     Chem. Phys. Lett. 2000 325(1-3), 93-98
     doi.org/10.1016/s0009-2614(00)00662-x

Timings for individual modules:

Sum of individual times          ...       29.945 sec (=   0.499 min)
Startup calculation              ...        2.571 sec (=   0.043 min)   8.6 %
SCF iterations                   ...        6.946 sec (=   0.116 min)  23.2 %
Property integrals               ...        9.641 sec (=   0.161 min)  32.2 %
SCF Response                     ...        4.218 sec (=   0.070 min)  14.1 %
Property calculations            ...        3.750 sec (=   0.062 min)  12.5 %
SCF Gradient evaluation          ...        2.808 sec (=   0.047 min)   9.4 %
Geometry relaxation              ...        0.011 sec (=   0.000 min)   0.0 %
                             ****ORCA TERMINATED NORMALLY****
TOTAL RUN TIME: 0 days 0 hours 0 minutes 31 seconds 408 msec
